CRYSTAL
PRIMVEC
 -2.27034373828795 2.27034373828795 2.27034373828795
 2.27034373828795 -2.27034373828795 2.27034373828795
 2.27034373828795 2.27034373828795 -2.27034373828795
PRIMCOORD
 1 1
 89     0.00000000000000     0.00000000000000     0.00000000000000
