CRYSTAL
PRIMVEC
 0.00000000000000 3.96046859765604 3.96046859765604
 3.96046859765604 0.00000000000000 3.96046859765604
 3.96046859765604 3.96046859765604 0.00000000000000
PRIMCOORD
 2 1
 89     0.00000000000000     0.00000000000000     0.00000000000000
 89     1.98023429882802     1.98023429882802     1.98023429882802
