CRYSTAL
PRIMVEC
 0.00000000000000 2.84693505317146 2.84693505317146
 2.84693505317146 0.00000000000000 2.84693505317146
 2.84693505317146 2.84693505317146 0.00000000000000
PRIMCOORD
 1 1
 89     0.00000000000000     0.00000000000000     0.00000000000000
