CRYSTAL
PRIMVEC
 3.65714170758456 0.00000000000000 0.00000000000000
 0.00000000000000 3.65714170758456 0.00000000000000
 0.00000000000000 0.00000000000000 3.65714170758456
PRIMCOORD
 1 1
 89     0.00000000000000     0.00000000000000     0.00000000000000
