CRYSTAL
PRIMVEC
 -1.57209852635181 1.57209852635181 1.57209852635181
 1.57209852635181 -1.57209852635181 1.57209852635181
 1.57209852635181 1.57209852635181 -1.57209852635181
PRIMCOORD
 1 1
 95     0.00000000000000     0.00000000000000     0.00000000000000
