CRYSTAL
PRIMVEC
 0.00000000000000 2.66026221220651 2.66026221220651
 2.66026221220651 0.00000000000000 2.66026221220651
 2.66026221220651 2.66026221220651 0.00000000000000
PRIMCOORD
 2 1
 95     0.00000000000000     0.00000000000000     0.00000000000000
 95     1.33013110610325     1.33013110610325     1.33013110610325
