CRYSTAL
PRIMVEC
 0.00000000000000 2.03199147131066 2.03199147131066
 2.03199147131066 0.00000000000000 2.03199147131066
 2.03199147131066 2.03199147131066 0.00000000000000
PRIMCOORD
 1 1
 95     0.00000000000000     0.00000000000000     0.00000000000000
