CRYSTAL
PRIMVEC
 2.48637461521875 0.00000000000000 0.00000000000000
 0.00000000000000 2.48637461521875 0.00000000000000
 0.00000000000000 0.00000000000000 2.48637461521875
PRIMCOORD
 1 1
 95     0.00000000000000     0.00000000000000     0.00000000000000
