CRYSTAL
PRIMVEC
 -2.18180266114374 2.18180266114374 2.18180266114374
 2.18180266114374 -2.18180266114374 2.18180266114374
 2.18180266114374 2.18180266114374 -2.18180266114374
PRIMCOORD
 1 1
 18     0.00000000000000     0.00000000000000     0.00000000000000
