CRYSTAL
PRIMVEC
 -2.15624188019474 2.15624188019474 2.15624188019474
 2.15624188019474 -2.15624188019474 2.15624188019474
 2.15624188019474 2.15624188019474 -2.15624188019474
PRIMCOORD
 1 1
 85     0.00000000000000     0.00000000000000     0.00000000000000
