CRYSTAL
PRIMVEC
 0.00000000000000 4.04603364545457 4.04603364545457
 4.04603364545457 0.00000000000000 4.04603364545457
 4.04603364545457 4.04603364545457 0.00000000000000
PRIMCOORD
 2 1
 85     0.00000000000000     0.00000000000000     0.00000000000000
 85     2.02301682272729     2.02301682272729     2.02301682272729
