CRYSTAL
PRIMVEC
 3.57489144201597 0.00000000000000 0.00000000000000
 0.00000000000000 3.57489144201597 0.00000000000000
 0.00000000000000 0.00000000000000 3.57489144201597
PRIMCOORD
 1 1
 85     0.00000000000000     0.00000000000000     0.00000000000000
