CRYSTAL
PRIMVEC
 0.00000000000000 1.42756686054399 1.42756686054399
 1.42756686054399 0.00000000000000 1.42756686054399
 1.42756686054399 1.42756686054399 0.00000000000000
PRIMCOORD
 1 1
  5     0.00000000000000     0.00000000000000     0.00000000000000
