CRYSTAL
PRIMVEC
 1.88592532270719 0.00000000000000 0.00000000000000
 0.00000000000000 1.88592532270719 0.00000000000000
 0.00000000000000 0.00000000000000 1.88592532270719
PRIMCOORD
 1 1
  5     0.00000000000000     0.00000000000000     0.00000000000000
