CRYSTAL
PRIMVEC
 0.00000000000000 2.46525803759431 2.46525803759431
 2.46525803759431 0.00000000000000 2.46525803759431
 2.46525803759431 2.46525803759431 0.00000000000000
PRIMCOORD
 2 1
  4     0.00000000000000     0.00000000000000     0.00000000000000
  4     1.23262901879716     1.23262901879716     1.23262901879716
