CRYSTAL
PRIMVEC
 3.25518850892417 0.00000000000000 0.00000000000000
 0.00000000000000 3.25518850892417 0.00000000000000
 0.00000000000000 0.00000000000000 3.25518850892417
PRIMCOORD
 1 1
 83     0.00000000000000     0.00000000000000     0.00000000000000
