CRYSTAL
PRIMVEC
 -1.60391809092045 1.60391809092045 1.60391809092045
 1.60391809092045 -1.60391809092045 1.60391809092045
 1.60391809092045 1.60391809092045 -1.60391809092045
PRIMCOORD
 1 1
 97     0.00000000000000     0.00000000000000     0.00000000000000
