CRYSTAL
PRIMVEC
 0.00000000000000 2.66933035149017 2.66933035149017
 2.66933035149017 0.00000000000000 2.66933035149017
 2.66933035149017 2.66933035149017 0.00000000000000
PRIMCOORD
 2 1
 97     0.00000000000000     0.00000000000000     0.00000000000000
 97     1.33466517574509     1.33466517574509     1.33466517574509
