CRYSTAL
PRIMVEC
 0.00000000000000 2.06162055929748 2.06162055929748
 2.06162055929748 0.00000000000000 2.06162055929748
 2.06162055929748 2.06162055929748 0.00000000000000
PRIMCOORD
 1 1
 97     0.00000000000000     0.00000000000000     0.00000000000000
