CRYSTAL
PRIMVEC
 2.52229970331708 0.00000000000000 0.00000000000000
 0.00000000000000 2.52229970331708 0.00000000000000
 0.00000000000000 0.00000000000000 2.52229970331708
PRIMCOORD
 1 1
 97     0.00000000000000     0.00000000000000     0.00000000000000
