CRYSTAL
PRIMVEC
 3.08115007937997 0.00000000000000 0.00000000000000
 0.00000000000000 3.08115007937997 0.00000000000000
 0.00000000000000 0.00000000000000 3.08115007937997
PRIMCOORD
 1 1
 35     0.00000000000000     0.00000000000000     0.00000000000000
