CRYSTAL
PRIMVEC
 -1.19395417927796 1.19395417927796 1.19395417927796
 1.19395417927796 -1.19395417927796 1.19395417927796
 1.19395417927796 1.19395417927796 -1.19395417927796
PRIMCOORD
 1 1
  6     0.00000000000000     0.00000000000000     0.00000000000000
