CRYSTAL
PRIMVEC
 0.00000000000000 4.34420362747046 4.34420362747046
 4.34420362747046 0.00000000000000 4.34420362747046
 4.34420362747046 4.34420362747046 0.00000000000000
PRIMCOORD
 2 1
 20     0.00000000000000     0.00000000000000     0.00000000000000
 20     2.17210181373523     2.17210181373523     2.17210181373523
