CRYSTAL
PRIMVEC
 0.00000000000000 2.78348474057118 2.78348474057118
 2.78348474057118 0.00000000000000 2.78348474057118
 2.78348474057118 2.78348474057118 0.00000000000000
PRIMCOORD
 1 1
 20     0.00000000000000     0.00000000000000     0.00000000000000
