CRYSTAL
PRIMVEC
 -1.87067305696785 1.87067305696785 1.87067305696785
 1.87067305696785 -1.87067305696785 1.87067305696785
 1.87067305696785 1.87067305696785 -1.87067305696785
PRIMCOORD
 1 1
 58     0.00000000000000     0.00000000000000     0.00000000000000
