CRYSTAL
PRIMVEC
 0.00000000000000 3.09362173947588 3.09362173947588
 3.09362173947588 0.00000000000000 3.09362173947588
 3.09362173947588 3.09362173947588 0.00000000000000
PRIMCOORD
 2 1
 58     0.00000000000000     0.00000000000000     0.00000000000000
 58     1.54681086973794     1.54681086973794     1.54681086973794
