CRYSTAL
PRIMVEC
 2.89868288738339 0.00000000000000 0.00000000000000
 0.00000000000000 2.89868288738339 0.00000000000000
 0.00000000000000 0.00000000000000 2.89868288738339
PRIMCOORD
 1 1
 58     0.00000000000000     0.00000000000000     0.00000000000000
