CRYSTAL
PRIMVEC
 -1.67258429315023 1.67258429315023 1.67258429315023
 1.67258429315023 -1.67258429315023 1.67258429315023
 1.67258429315023 1.67258429315023 -1.67258429315023
PRIMCOORD
 1 1
 98     0.00000000000000     0.00000000000000     0.00000000000000
