CRYSTAL
PRIMVEC
 0.00000000000000 2.71675672608369 2.71675672608369
 2.71675672608369 0.00000000000000 2.71675672608369
 2.71675672608369 2.71675672608369 0.00000000000000
PRIMCOORD
 2 1
 98     0.00000000000000     0.00000000000000     0.00000000000000
 98     1.35837836304184     1.35837836304184     1.35837836304184
