CRYSTAL
PRIMVEC
 2.59026304100576 0.00000000000000 0.00000000000000
 0.00000000000000 2.59026304100576 0.00000000000000
 0.00000000000000 0.00000000000000 2.59026304100576
PRIMCOORD
 1 1
 98     0.00000000000000     0.00000000000000     0.00000000000000
