CRYSTAL
PRIMVEC
 -1.57909129017469 1.57909129017469 1.57909129017469
 1.57909129017469 -1.57909129017469 1.57909129017469
 1.57909129017469 1.57909129017469 -1.57909129017469
PRIMCOORD
 1 1
 96     0.00000000000000     0.00000000000000     0.00000000000000
