CRYSTAL
PRIMVEC
 0.00000000000000 2.64849563651511 2.64849563651511
 2.64849563651511 0.00000000000000 2.64849563651511
 2.64849563651511 2.64849563651511 0.00000000000000
PRIMCOORD
 2 1
 96     0.00000000000000     0.00000000000000     0.00000000000000
 96     1.32424781825755     1.32424781825755     1.32424781825755
