CRYSTAL
PRIMVEC
 0.00000000000000 2.03505502420925 2.03505502420925
 2.03505502420925 0.00000000000000 2.03505502420925
 2.03505502420925 2.03505502420925 0.00000000000000
PRIMCOORD
 1 1
 96     0.00000000000000     0.00000000000000     0.00000000000000
