CRYSTAL
PRIMVEC
 2.49102003851205 0.00000000000000 0.00000000000000
 0.00000000000000 2.49102003851205 0.00000000000000
 0.00000000000000 0.00000000000000 2.49102003851205
PRIMCOORD
 1 1
 96     0.00000000000000     0.00000000000000     0.00000000000000
