CRYSTAL
PRIMVEC
 0.00000000000000 1.70666134550737 1.70666134550737
 1.70666134550737 0.00000000000000 1.70666134550737
 1.70666134550737 1.70666134550737 0.00000000000000
PRIMCOORD
 1 1
 27     0.00000000000000     0.00000000000000     0.00000000000000
