CRYSTAL
PRIMVEC
 -1.41488227306746 1.41488227306746 1.41488227306746
 1.41488227306746 -1.41488227306746 1.41488227306746
 1.41488227306746 1.41488227306746 -1.41488227306746
PRIMCOORD
 1 1
 24     0.00000000000000     0.00000000000000     0.00000000000000
