CRYSTAL
PRIMVEC
 0.00000000000000 2.52246928301290 2.52246928301290
 2.52246928301290 0.00000000000000 2.52246928301290
 2.52246928301290 2.52246928301290 0.00000000000000
PRIMCOORD
 2 1
 24     0.00000000000000     0.00000000000000     0.00000000000000
 24     1.26123464150645     1.26123464150645     1.26123464150645
