CRYSTAL
PRIMVEC
 0.00000000000000 1.79898448119995 1.79898448119995
 1.79898448119995 0.00000000000000 1.79898448119995
 1.79898448119995 1.79898448119995 0.00000000000000
PRIMCOORD
 1 1
 24     0.00000000000000     0.00000000000000     0.00000000000000
