CRYSTAL
PRIMVEC
 -3.13289927946966 3.13289927946966 3.13289927946966
 3.13289927946966 -3.13289927946966 3.13289927946966
 3.13289927946966 3.13289927946966 -3.13289927946966
PRIMCOORD
 1 1
 55     0.00000000000000     0.00000000000000     0.00000000000000
