CRYSTAL
PRIMVEC
 0.00000000000000 5.70870862455526 5.70870862455526
 5.70870862455526 0.00000000000000 5.70870862455526
 5.70870862455526 5.70870862455526 0.00000000000000
PRIMCOORD
 2 1
 55     0.00000000000000     0.00000000000000     0.00000000000000
 55     2.85435431227763     2.85435431227763     2.85435431227763
