CRYSTAL
PRIMVEC
 -1.42123286832325 1.42123286832325 1.42123286832325
 1.42123286832325 -1.42123286832325 1.42123286832325
 1.42123286832325 1.42123286832325 -1.42123286832325
PRIMCOORD
 1 1
 29     0.00000000000000     0.00000000000000     0.00000000000000
