CRYSTAL
PRIMVEC
 0.00000000000000 1.78854930470429 1.78854930470429
 1.78854930470429 0.00000000000000 1.78854930470429
 1.78854930470429 1.78854930470429 0.00000000000000
PRIMCOORD
 1 1
 29     0.00000000000000     0.00000000000000     0.00000000000000
