CRYSTAL
PRIMVEC
 2.37026811603770 0.00000000000000 0.00000000000000
 0.00000000000000 2.37026811603770 0.00000000000000
 0.00000000000000 0.00000000000000 2.37026811603770
PRIMCOORD
 1 1
 29     0.00000000000000     0.00000000000000     0.00000000000000
