CRYSTAL
PRIMVEC
 -2.02541482101718 2.02541482101718 2.02541482101718
 2.02541482101718 -2.02541482101718 2.02541482101718
 2.02541482101718 2.02541482101718 -2.02541482101718
PRIMCOORD
 1 1
 68     0.00000000000000     0.00000000000000     0.00000000000000
