CRYSTAL
PRIMVEC
 0.00000000000000 2.81605719940077 2.81605719940077
 2.81605719940077 0.00000000000000 2.81605719940077
 2.81605719940077 2.81605719940077 0.00000000000000
PRIMCOORD
 2 1
 99     0.00000000000000     0.00000000000000     0.00000000000000
 99     1.40802859970038     1.40802859970038     1.40802859970038
