CRYSTAL
PRIMVEC
 0.00000000000000 2.23020322834187 2.23020322834187
 2.23020322834187 0.00000000000000 2.23020322834187
 2.23020322834187 2.23020322834187 0.00000000000000
PRIMCOORD
 1 1
 99     0.00000000000000     0.00000000000000     0.00000000000000
