CRYSTAL
PRIMVEC
 2.70548901131327 0.00000000000000 0.00000000000000
 0.00000000000000 2.70548901131327 0.00000000000000
 0.00000000000000 0.00000000000000 2.70548901131327
PRIMCOORD
 1 1
 99     0.00000000000000     0.00000000000000     0.00000000000000
