CRYSTAL
PRIMVEC
 0.00000000000000 2.86393534077007 2.86393534077007
 2.86393534077007 0.00000000000000 2.86393534077007
 2.86393534077007 2.86393534077007 0.00000000000000
PRIMCOORD
 2 1
 63     0.00000000000000     0.00000000000000     0.00000000000000
 63     1.43196767038503     1.43196767038503     1.43196767038503
