CRYSTAL
PRIMVEC
 2.54536694942117 0.00000000000000 0.00000000000000
 0.00000000000000 2.54536694942117 0.00000000000000
 0.00000000000000 0.00000000000000 2.54536694942117
PRIMCOORD
 1 1
 63     0.00000000000000     0.00000000000000     0.00000000000000
