CRYSTAL
PRIMVEC
 -1.32038500447101 1.32038500447101 1.32038500447101
 1.32038500447101 -1.32038500447101 1.32038500447101
 1.32038500447101 1.32038500447101 -1.32038500447101
PRIMCOORD
 1 1
  9     0.00000000000000     0.00000000000000     0.00000000000000
