CRYSTAL
PRIMVEC
 2.23850626552925 0.00000000000000 0.00000000000000
 0.00000000000000 2.23850626552925 0.00000000000000
 0.00000000000000 0.00000000000000 2.23850626552925
PRIMCOORD
 1 1
 26     0.00000000000000     0.00000000000000     0.00000000000000
