CRYSTAL
PRIMVEC
 -1.87110615718183 1.87110615718183 1.87110615718183
 1.87110615718183 -1.87110615718183 1.87110615718183
 1.87110615718183 1.87110615718183 -1.87110615718183
PRIMCOORD
 1 1
 100     0.00000000000000     0.00000000000000     0.00000000000000
