CRYSTAL
PRIMVEC
 0.00000000000000 3.02874741457482 3.02874741457482
 3.02874741457482 0.00000000000000 3.02874741457482
 3.02874741457482 3.02874741457482 0.00000000000000
PRIMCOORD
 2 1
 100     0.00000000000000     0.00000000000000     0.00000000000000
 100     1.51437370728741     1.51437370728741     1.51437370728741
