CRYSTAL
PRIMVEC
 0.00000000000000 2.36612218791784 2.36612218791784
 2.36612218791784 0.00000000000000 2.36612218791784
 2.36612218791784 2.36612218791784 0.00000000000000
PRIMCOORD
 1 1
 100     0.00000000000000     0.00000000000000     0.00000000000000
