CRYSTAL
PRIMVEC
 2.95478242088805 0.00000000000000 0.00000000000000
 0.00000000000000 2.95478242088805 0.00000000000000
 0.00000000000000 0.00000000000000 2.95478242088805
PRIMCOORD
 1 1
 100     0.00000000000000     0.00000000000000     0.00000000000000
