CRYSTAL
PRIMVEC
 0.00000000000000 5.73624225771593 5.73624225771593
 5.73624225771593 0.00000000000000 5.73624225771593
 5.73624225771593 5.73624225771593 0.00000000000000
PRIMCOORD
 2 1
 87     0.00000000000000     0.00000000000000     0.00000000000000
 87     2.86812112885797     2.86812112885797     2.86812112885797
