CRYSTAL
PRIMVEC
 -1.65672343693675 1.65672343693675 1.65672343693675
 1.65672343693675 -1.65672343693675 1.65672343693675
 1.65672343693675 1.65672343693675 -1.65672343693675
PRIMCOORD
 1 1
 31     0.00000000000000     0.00000000000000     0.00000000000000
