CRYSTAL
PRIMVEC
 0.00000000000000 2.85780164623147 2.85780164623147
 2.85780164623147 0.00000000000000 2.85780164623147
 2.85780164623147 2.85780164623147 0.00000000000000
PRIMCOORD
 2 1
 64     0.00000000000000     0.00000000000000     0.00000000000000
 64     1.42890082311574     1.42890082311574     1.42890082311574
