CRYSTAL
PRIMVEC
 -1.89075638651116 1.89075638651116 1.89075638651116
 1.89075638651116 -1.89075638651116 1.89075638651116
 1.89075638651116 1.89075638651116 -1.89075638651116
PRIMCOORD
 1 1
 80     0.00000000000000     0.00000000000000     0.00000000000000
