CRYSTAL
PRIMVEC
 0.00000000000000 2.40728640171245 2.40728640171245
 2.40728640171245 0.00000000000000 2.40728640171245
 2.40728640171245 2.40728640171245 0.00000000000000
PRIMCOORD
 1 1
 80     0.00000000000000     0.00000000000000     0.00000000000000
