CRYSTAL
PRIMVEC
 3.45343900718013 0.00000000000000 0.00000000000000
 0.00000000000000 3.45343900718013 0.00000000000000
 0.00000000000000 0.00000000000000 3.45343900718013
PRIMCOORD
 1 1
 53     0.00000000000000     0.00000000000000     0.00000000000000
