CRYSTAL
PRIMVEC
 0.00000000000000 1.92312416816170 1.92312416816170
 1.92312416816170 0.00000000000000 1.92312416816170
 1.92312416816170 1.92312416816170 0.00000000000000
PRIMCOORD
 1 1
 77     0.00000000000000     0.00000000000000     0.00000000000000
