CRYSTAL
PRIMVEC
 0.00000000000000 3.37437977032267 3.37437977032267
 3.37437977032267 0.00000000000000 3.37437977032267
 3.37437977032267 3.37437977032267 0.00000000000000
PRIMCOORD
 1 1
 19     0.00000000000000     0.00000000000000     0.00000000000000
