CRYSTAL
PRIMVEC
 -2.35198635109660 2.35198635109660 2.35198635109660
 2.35198635109660 -2.35198635109660 2.35198635109660
 2.35198635109660 2.35198635109660 -2.35198635109660
PRIMCOORD
 1 1
 36     0.00000000000000     0.00000000000000     0.00000000000000
