CRYSTAL
PRIMVEC
 0.00000000000000 2.93387199918033 2.93387199918033
 2.93387199918033 0.00000000000000 2.93387199918033
 2.93387199918033 2.93387199918033 0.00000000000000
PRIMCOORD
 1 1
 36     0.00000000000000     0.00000000000000     0.00000000000000
