CRYSTAL
PRIMVEC
 -2.12463936707041 2.12463936707041 2.12463936707041
 2.12463936707041 -2.12463936707041 2.12463936707041
 2.12463936707041 2.12463936707041 -2.12463936707041
PRIMCOORD
 1 1
 57     0.00000000000000     0.00000000000000     0.00000000000000
