CRYSTAL
PRIMVEC
 0.00000000000000 3.33186037417046 3.33186037417046
 3.33186037417046 0.00000000000000 3.33186037417046
 3.33186037417046 3.33186037417046 0.00000000000000
PRIMCOORD
 2 1
 57     0.00000000000000     0.00000000000000     0.00000000000000
 57     1.66593018708523     1.66593018708523     1.66593018708523
