CRYSTAL
PRIMVEC
 0.00000000000000 2.64544668975417 2.64544668975417
 2.64544668975417 0.00000000000000 2.64544668975417
 2.64544668975417 2.64544668975417 0.00000000000000
PRIMCOORD
 1 1
 57     0.00000000000000     0.00000000000000     0.00000000000000
