CRYSTAL
PRIMVEC
 3.29753656957747 0.00000000000000 0.00000000000000
 0.00000000000000 3.29753656957747 0.00000000000000
 0.00000000000000 0.00000000000000 3.29753656957747
PRIMCOORD
 1 1
 57     0.00000000000000     0.00000000000000     0.00000000000000
