CRYSTAL
PRIMVEC
 2.76385956416419 0.00000000000000 0.00000000000000
 0.00000000000000 2.76385956416419 0.00000000000000
 0.00000000000000 0.00000000000000 2.76385956416419
PRIMCOORD
 1 1
  3     0.00000000000000     0.00000000000000     0.00000000000000
