CRYSTAL
PRIMVEC
 -1.94820882565082 1.94820882565082 1.94820882565082
 1.94820882565082 -1.94820882565082 1.94820882565082
 1.94820882565082 1.94820882565082 -1.94820882565082
PRIMCOORD
 1 1
 71     0.00000000000000     0.00000000000000     0.00000000000000
