CRYSTAL
PRIMVEC
 0.00000000000000 3.68093922466917 3.68093922466917
 3.68093922466917 0.00000000000000 3.68093922466917
 3.68093922466917 3.68093922466917 0.00000000000000
PRIMCOORD
 2 1
 71     0.00000000000000     0.00000000000000     0.00000000000000
 71     1.84046961233459     1.84046961233459     1.84046961233459
