CRYSTAL
PRIMVEC
 3.17795684069482 0.00000000000000 0.00000000000000
 0.00000000000000 3.17795684069482 0.00000000000000
 0.00000000000000 0.00000000000000 3.17795684069482
PRIMCOORD
 1 1
 71     0.00000000000000     0.00000000000000     0.00000000000000
