CRYSTAL
PRIMVEC
 3.25080900541528 0.00000000000000 0.00000000000000
 0.00000000000000 3.25080900541528 0.00000000000000
 0.00000000000000 0.00000000000000 3.25080900541528
PRIMCOORD
 1 1
 101     0.00000000000000     0.00000000000000     0.00000000000000
