CRYSTAL
PRIMVEC
 -1.77923765823618 1.77923765823618 1.77923765823618
 1.77923765823618 -1.77923765823618 1.77923765823618
 1.77923765823618 1.77923765823618 -1.77923765823618
PRIMCOORD
 1 1
 12     0.00000000000000     0.00000000000000     0.00000000000000
