CRYSTAL
PRIMVEC
 2.25849287805245 0.00000000000000 0.00000000000000
 0.00000000000000 2.25849287805245 0.00000000000000
 0.00000000000000 0.00000000000000 2.25849287805245
PRIMCOORD
 1 1
 25     0.00000000000000     0.00000000000000     0.00000000000000
