CRYSTAL
PRIMVEC
 0.00000000000000 3.82086770768607 3.82086770768607
 3.82086770768607 0.00000000000000 3.82086770768607
 3.82086770768607 3.82086770768607 0.00000000000000
PRIMCOORD
 2 1
 11     0.00000000000000     0.00000000000000     0.00000000000000
 11     1.91043385384303     1.91043385384303     1.91043385384303
