CRYSTAL
PRIMVEC
 0.00000000000000 2.66193437318415 2.66193437318415
 2.66193437318415 0.00000000000000 2.66193437318415
 2.66193437318415 2.66193437318415 0.00000000000000
PRIMCOORD
 1 1
 11     0.00000000000000     0.00000000000000     0.00000000000000
