CRYSTAL
PRIMVEC
 -1.65214649519803 1.65214649519803 1.65214649519803
 1.65214649519803 -1.65214649519803 1.65214649519803
 1.65214649519803 1.65214649519803 -1.65214649519803
PRIMCOORD
 1 1
 41     0.00000000000000     0.00000000000000     0.00000000000000
