CRYSTAL
PRIMVEC
 0.00000000000000 2.10691829035151 2.10691829035151
 2.10691829035151 0.00000000000000 2.10691829035151
 2.10691829035151 2.10691829035151 0.00000000000000
PRIMCOORD
 1 1
 41     0.00000000000000     0.00000000000000     0.00000000000000
