CRYSTAL
PRIMVEC
 2.70995394998453 0.00000000000000 0.00000000000000
 0.00000000000000 2.70995394998453 0.00000000000000
 0.00000000000000 0.00000000000000 2.70995394998453
PRIMCOORD
 1 1
 41     0.00000000000000     0.00000000000000     0.00000000000000
