CRYSTAL
PRIMVEC
 0.00000000000000 2.86119245002527 2.86119245002527
 2.86119245002527 0.00000000000000 2.86119245002527
 2.86119245002527 2.86119245002527 0.00000000000000
PRIMCOORD
 2 1
 60     0.00000000000000     0.00000000000000     0.00000000000000
 60     1.43059622501264     1.43059622501264     1.43059622501264
