CRYSTAL
PRIMVEC
 2.59936688081997 0.00000000000000 0.00000000000000
 0.00000000000000 2.59936688081997 0.00000000000000
 0.00000000000000 0.00000000000000 2.59936688081997
PRIMCOORD
 1 1
 60     0.00000000000000     0.00000000000000     0.00000000000000
