CRYSTAL
PRIMVEC
 -1.66635708872696 1.66635708872696 1.66635708872696
 1.66635708872696 -1.66635708872696 1.66635708872696
 1.66635708872696 1.66635708872696 -1.66635708872696
PRIMCOORD
 1 1
 10     0.00000000000000     0.00000000000000     0.00000000000000
