CRYSTAL
PRIMVEC
 0.00000000000000 2.08487279021280 2.08487279021280
 2.08487279021280 0.00000000000000 2.08487279021280
 2.08487279021280 2.08487279021280 0.00000000000000
PRIMCOORD
 1 1
 10     0.00000000000000     0.00000000000000     0.00000000000000
