CRYSTAL
PRIMVEC
 2.90280134916237 0.00000000000000 0.00000000000000
 0.00000000000000 2.90280134916237 0.00000000000000
 0.00000000000000 0.00000000000000 2.90280134916237
PRIMCOORD
 1 1
 10     0.00000000000000     0.00000000000000     0.00000000000000
