CRYSTAL
PRIMVEC
 -2.09822403933951 2.09822403933951 2.09822403933951
 2.09822403933951 -2.09822403933951 2.09822403933951
 2.09822403933951 2.09822403933951 -2.09822403933951
PRIMCOORD
 1 1
 102     0.00000000000000     0.00000000000000     0.00000000000000
