CRYSTAL
PRIMVEC
 0.00000000000000 4.55181363645131 4.55181363645131
 4.55181363645131 0.00000000000000 4.55181363645131
 4.55181363645131 4.55181363645131 0.00000000000000
PRIMCOORD
 2 1
 102     0.00000000000000     0.00000000000000     0.00000000000000
 102     2.27590681822565     2.27590681822565     2.27590681822565
