CRYSTAL
PRIMVEC
 0.00000000000000 2.66197884822375 2.66197884822375
 2.66197884822375 0.00000000000000 2.66197884822375
 2.66197884822375 2.66197884822375 0.00000000000000
PRIMCOORD
 1 1
 102     0.00000000000000     0.00000000000000     0.00000000000000
