CRYSTAL
PRIMVEC
 3.40845742554182 0.00000000000000 0.00000000000000
 0.00000000000000 3.40845742554182 0.00000000000000
 0.00000000000000 0.00000000000000 3.40845742554182
PRIMCOORD
 1 1
 102     0.00000000000000     0.00000000000000     0.00000000000000
