CRYSTAL
PRIMVEC
 -1.62794219840928 1.62794219840928 1.62794219840928
 1.62794219840928 -1.62794219840928 1.62794219840928
 1.62794219840928 1.62794219840928 -1.62794219840928
PRIMCOORD
 1 1
 93     0.00000000000000     0.00000000000000     0.00000000000000
