CRYSTAL
PRIMVEC
 0.00000000000000 2.76207106737610 2.76207106737610
 2.76207106737610 0.00000000000000 2.76207106737610
 2.76207106737610 2.76207106737610 0.00000000000000
PRIMCOORD
 2 1
 93     0.00000000000000     0.00000000000000     0.00000000000000
 93     1.38103553368805     1.38103553368805     1.38103553368805
