CRYSTAL
PRIMVEC
 2.56006828568386 0.00000000000000 0.00000000000000
 0.00000000000000 2.56006828568386 0.00000000000000
 0.00000000000000 0.00000000000000 2.56006828568386
PRIMCOORD
 1 1
 93     0.00000000000000     0.00000000000000     0.00000000000000
