CRYSTAL
PRIMVEC
 1.97200412475123 0.00000000000000 0.00000000000000
 0.00000000000000 1.97200412475123 0.00000000000000
 0.00000000000000 0.00000000000000 1.97200412475123
PRIMCOORD
 1 1
  8     0.00000000000000     0.00000000000000     0.00000000000000
