CRYSTAL
PRIMVEC
 0.00000000000000 2.71789181551654 2.71789181551654
 2.71789181551654 0.00000000000000 2.71789181551654
 2.71789181551654 2.71789181551654 0.00000000000000
PRIMCOORD
 2 1
 15     0.00000000000000     0.00000000000000     0.00000000000000
 15     1.35894590775827     1.35894590775827     1.35894590775827
