CRYSTAL
PRIMVEC
 -1.82945704036287 1.82945704036287 1.82945704036287
 1.82945704036287 -1.82945704036287 1.82945704036287
 1.82945704036287 1.82945704036287 -1.82945704036287
PRIMCOORD
 1 1
 91     0.00000000000000     0.00000000000000     0.00000000000000
