CRYSTAL
PRIMVEC
 0.00000000000000 3.10052216952207 3.10052216952207
 3.10052216952207 0.00000000000000 3.10052216952207
 3.10052216952207 3.10052216952207 0.00000000000000
PRIMCOORD
 2 1
 91     0.00000000000000     0.00000000000000     0.00000000000000
 91     1.55026108476103     1.55026108476103     1.55026108476103
