CRYSTAL
PRIMVEC
 0.00000000000000 2.32679883682496 2.32679883682496
 2.32679883682496 0.00000000000000 2.32679883682496
 2.32679883682496 2.32679883682496 0.00000000000000
PRIMCOORD
 1 1
 91     0.00000000000000     0.00000000000000     0.00000000000000
