CRYSTAL
PRIMVEC
 2.86378731540007 0.00000000000000 0.00000000000000
 0.00000000000000 2.86378731540007 0.00000000000000
 0.00000000000000 0.00000000000000 2.86378731540007
PRIMCOORD
 1 1
 91     0.00000000000000     0.00000000000000     0.00000000000000
