CRYSTAL
PRIMVEC
 -1.98117436822807 1.98117436822807 1.98117436822807
 1.98117436822807 -1.98117436822807 1.98117436822807
 1.98117436822807 1.98117436822807 -1.98117436822807
PRIMCOORD
 1 1
 82     0.00000000000000     0.00000000000000     0.00000000000000
