CRYSTAL
PRIMVEC
 0.00000000000000 1.95521400799115 1.95521400799115
 1.95521400799115 0.00000000000000 1.95521400799115
 1.95521400799115 1.95521400799115 0.00000000000000
PRIMCOORD
 1 1
 46     0.00000000000000     0.00000000000000     0.00000000000000
