CRYSTAL
PRIMVEC
 0.00000000000000 2.80858287993226 2.80858287993226
 2.80858287993226 0.00000000000000 2.80858287993226
 2.80858287993226 2.80858287993226 0.00000000000000
PRIMCOORD
 2 1
 61     0.00000000000000     0.00000000000000     0.00000000000000
 61     1.40429143996613     1.40429143996613     1.40429143996613
