CRYSTAL
PRIMVEC
 0.00000000000000 3.72337365157984 3.72337365157984
 3.72337365157984 0.00000000000000 3.72337365157984
 3.72337365157984 3.72337365157984 0.00000000000000
PRIMCOORD
 2 1
 84     0.00000000000000     0.00000000000000     0.00000000000000
 84     1.86168682578992     1.86168682578992     1.86168682578992
