CRYSTAL
PRIMVEC
 -1.76011672369475 1.76011672369475 1.76011672369475
 1.76011672369475 -1.76011672369475 1.76011672369475
 1.76011672369475 1.76011672369475 -1.76011672369475
PRIMCOORD
 1 1
 59     0.00000000000000     0.00000000000000     0.00000000000000
