CRYSTAL
PRIMVEC
 0.00000000000000 2.94878784679355 2.94878784679355
 2.94878784679355 0.00000000000000 2.94878784679355
 2.94878784679355 2.94878784679355 0.00000000000000
PRIMCOORD
 2 1
 59     0.00000000000000     0.00000000000000     0.00000000000000
 59     1.47439392339677     1.47439392339677     1.47439392339677
