CRYSTAL
PRIMVEC
 0.00000000000000 2.29024019827046 2.29024019827046
 2.29024019827046 0.00000000000000 2.29024019827046
 2.29024019827046 2.29024019827046 0.00000000000000
PRIMCOORD
 1 1
 59     0.00000000000000     0.00000000000000     0.00000000000000
