CRYSTAL
PRIMVEC
 2.69606849360461 0.00000000000000 0.00000000000000
 0.00000000000000 2.69606849360461 0.00000000000000
 0.00000000000000 0.00000000000000 2.69606849360461
PRIMCOORD
 1 1
 59     0.00000000000000     0.00000000000000     0.00000000000000
