CRYSTAL
PRIMVEC
 -1.58548745986272 1.58548745986272 1.58548745986272
 1.58548745986272 -1.58548745986272 1.58548745986272
 1.58548745986272 1.58548745986272 -1.58548745986272
PRIMCOORD
 1 1
 94     0.00000000000000     0.00000000000000     0.00000000000000
