CRYSTAL
PRIMVEC
 0.00000000000000 2.69892151890348 2.69892151890348
 2.69892151890348 0.00000000000000 2.69892151890348
 2.69892151890348 2.69892151890348 0.00000000000000
PRIMCOORD
 2 1
 94     0.00000000000000     0.00000000000000     0.00000000000000
 94     1.34946075945174     1.34946075945174     1.34946075945174
