CRYSTAL
PRIMVEC
 0.00000000000000 2.04812851995197 2.04812851995197
 2.04812851995197 0.00000000000000 2.04812851995197
 2.04812851995197 2.04812851995197 0.00000000000000
PRIMCOORD
 1 1
 94     0.00000000000000     0.00000000000000     0.00000000000000
