CRYSTAL
PRIMVEC
 2.50860071230801 0.00000000000000 0.00000000000000
 0.00000000000000 2.50860071230801 0.00000000000000
 0.00000000000000 0.00000000000000 2.50860071230801
PRIMCOORD
 1 1
 94     0.00000000000000     0.00000000000000     0.00000000000000
