CRYSTAL
PRIMVEC
 4.15941170656614 0.00000000000000 0.00000000000000
 0.00000000000000 4.15941170656614 0.00000000000000
 0.00000000000000 0.00000000000000 4.15941170656614
PRIMCOORD
 1 1
 88     0.00000000000000     0.00000000000000     0.00000000000000
