CRYSTAL
PRIMVEC
 0.00000000000000 3.62977147022801 3.62977147022801
 3.62977147022801 0.00000000000000 3.62977147022801
 3.62977147022801 3.62977147022801 0.00000000000000
PRIMCOORD
 1 1
 37     0.00000000000000     0.00000000000000     0.00000000000000
