CRYSTAL
PRIMVEC
 2.56409757043645 0.00000000000000 0.00000000000000
 0.00000000000000 2.56409757043645 0.00000000000000
 0.00000000000000 0.00000000000000 2.56409757043645
PRIMCOORD
 1 1
 75     0.00000000000000     0.00000000000000     0.00000000000000
