CRYSTAL
PRIMVEC
 0.00000000000000 2.73160639864022 2.73160639864022
 2.73160639864022 0.00000000000000 2.73160639864022
 2.73160639864022 2.73160639864022 0.00000000000000
PRIMCOORD
 2 1
 45     0.00000000000000     0.00000000000000     0.00000000000000
 45     1.36580319932011     1.36580319932011     1.36580319932011
