CRYSTAL
PRIMVEC
 -2.64964047986156 2.64964047986156 2.64964047986156
 2.64964047986156 -2.64964047986156 2.64964047986156
 2.64964047986156 2.64964047986156 -2.64964047986156
PRIMCOORD
 1 1
 86     0.00000000000000     0.00000000000000     0.00000000000000
