CRYSTAL
PRIMVEC
 4.67461667624593 0.00000000000000 0.00000000000000
 0.00000000000000 4.67461667624593 0.00000000000000
 0.00000000000000 0.00000000000000 4.67461667624593
PRIMCOORD
 1 1
 86     0.00000000000000     0.00000000000000     0.00000000000000
