CRYSTAL
PRIMVEC
 2.49210831138407 0.00000000000000 0.00000000000000
 0.00000000000000 2.49210831138407 0.00000000000000
 0.00000000000000 0.00000000000000 2.49210831138407
PRIMCOORD
 1 1
 44     0.00000000000000     0.00000000000000     0.00000000000000
