CRYSTAL
PRIMVEC
 -1.58255020750191 1.58255020750191 1.58255020750191
 1.58255020750191 -1.58255020750191 1.58255020750191
 1.58255020750191 1.58255020750191 -1.58255020750191
PRIMCOORD
 1 1
 16     0.00000000000000     0.00000000000000     0.00000000000000
