CRYSTAL
PRIMVEC
 0.00000000000000 3.47123782538176 3.47123782538176
 3.47123782538176 0.00000000000000 3.47123782538176
 3.47123782538176 3.47123782538176 0.00000000000000
PRIMCOORD
 2 1
 51     0.00000000000000     0.00000000000000     0.00000000000000
 51     1.73561891269088     1.73561891269088     1.73561891269088
