CRYSTAL
PRIMVEC
 -1.71811332421811 1.71811332421811 1.71811332421811
 1.71811332421811 -1.71811332421811 1.71811332421811
 1.71811332421811 1.71811332421811 -1.71811332421811
PRIMCOORD
 1 1
 34     0.00000000000000     0.00000000000000     0.00000000000000
