CRYSTAL
PRIMVEC
 2.81546050962267 0.00000000000000 0.00000000000000
 0.00000000000000 2.81546050962267 0.00000000000000
 0.00000000000000 0.00000000000000 2.81546050962267
PRIMCOORD
 1 1
 34     0.00000000000000     0.00000000000000     0.00000000000000
