CRYSTAL
PRIMVEC
 -1.52324751176679 1.52324751176679 1.52324751176679
 1.52324751176679 -1.52324751176679 1.52324751176679
 1.52324751176679 1.52324751176679 -1.52324751176679
PRIMCOORD
 1 1
 14     0.00000000000000     0.00000000000000     0.00000000000000
