CRYSTAL
PRIMVEC
 0.00000000000000 1.90307877813334 1.90307877813334
 1.90307877813334 0.00000000000000 1.90307877813334
 1.90307877813334 1.90307877813334 0.00000000000000
PRIMCOORD
 1 1
 14     0.00000000000000     0.00000000000000     0.00000000000000
