CRYSTAL
PRIMVEC
 0.00000000000000 2.84549461438709 2.84549461438709
 2.84549461438709 0.00000000000000 2.84549461438709
 2.84549461438709 2.84549461438709 0.00000000000000
PRIMCOORD
 2 1
 62     0.00000000000000     0.00000000000000     0.00000000000000
 62     1.42274730719354     1.42274730719354     1.42274730719354
