CRYSTAL
PRIMVEC
 0.00000000000000 3.28487301485277 3.28487301485277
 3.28487301485277 0.00000000000000 3.28487301485277
 3.28487301485277 3.28487301485277 0.00000000000000
PRIMCOORD
 2 1
 50     0.00000000000000     0.00000000000000     0.00000000000000
 50     1.64243650742638     1.64243650742638     1.64243650742638
