CRYSTAL
PRIMVEC
 0.00000000000000 4.85158107085006 4.85158107085006
 4.85158107085006 0.00000000000000 4.85158107085006
 4.85158107085006 4.85158107085006 0.00000000000000
PRIMCOORD
 2 1
 38     0.00000000000000     0.00000000000000     0.00000000000000
 38     2.42579053542503     2.42579053542503     2.42579053542503
