CRYSTAL
PRIMVEC
 0.00000000000000 3.02785458640020 3.02785458640020
 3.02785458640020 0.00000000000000 3.02785458640020
 3.02785458640020 3.02785458640020 0.00000000000000
PRIMCOORD
 2 1
 73     0.00000000000000     0.00000000000000     0.00000000000000
 73     1.51392729320010     1.51392729320010     1.51392729320010
