CRYSTAL
PRIMVEC
 0.00000000000000 2.86327957783157 2.86327957783157
 2.86327957783157 0.00000000000000 2.86327957783157
 2.86327957783157 2.86327957783157 0.00000000000000
PRIMCOORD
 2 1
 65     0.00000000000000     0.00000000000000     0.00000000000000
 65     1.43163978891578     1.43163978891578     1.43163978891578
