CRYSTAL
PRIMVEC
 2.51651445459821 0.00000000000000 0.00000000000000
 0.00000000000000 2.51651445459821 0.00000000000000
 0.00000000000000 0.00000000000000 2.51651445459821
PRIMCOORD
 1 1
 43     0.00000000000000     0.00000000000000     0.00000000000000
