CRYSTAL
PRIMVEC
 0.00000000000000 3.57439162622078 3.57439162622078
 3.57439162622078 0.00000000000000 3.57439162622078
 3.57439162622078 3.57439162622078 0.00000000000000
PRIMCOORD
 2 1
 52     0.00000000000000     0.00000000000000     0.00000000000000
 52     1.78719581311039     1.78719581311039     1.78719581311039
