CRYSTAL
PRIMVEC
 -2.01233641208808 2.01233641208808 2.01233641208808
 2.01233641208808 -2.01233641208808 2.01233641208808
 2.01233641208808 2.01233641208808 -2.01233641208808
PRIMCOORD
 1 1
 90     0.00000000000000     0.00000000000000     0.00000000000000
