CRYSTAL
PRIMVEC
 0.00000000000000 3.54789730875861 3.54789730875861
 3.54789730875861 0.00000000000000 3.54789730875861
 3.54789730875861 3.54789730875861 0.00000000000000
PRIMCOORD
 2 1
 90     0.00000000000000     0.00000000000000     0.00000000000000
 90     1.77394865437930     1.77394865437930     1.77394865437930
