CRYSTAL
PRIMVEC
 0.00000000000000 2.52402186038782 2.52402186038782
 2.52402186038782 0.00000000000000 2.52402186038782
 2.52402186038782 2.52402186038782 0.00000000000000
PRIMCOORD
 1 1
 90     0.00000000000000     0.00000000000000     0.00000000000000
