CRYSTAL
PRIMVEC
 -1.62704749395634 1.62704749395634 1.62704749395634
 1.62704749395634 -1.62704749395634 1.62704749395634
 1.62704749395634 1.62704749395634 -1.62704749395634
PRIMCOORD
 1 1
 22     0.00000000000000     0.00000000000000     0.00000000000000
