CRYSTAL
PRIMVEC
 0.00000000000000 2.77678763905660 2.77678763905660
 2.77678763905660 0.00000000000000 2.77678763905660
 2.77678763905660 2.77678763905660 0.00000000000000
PRIMCOORD
 2 1
 22     0.00000000000000     0.00000000000000     0.00000000000000
 22     1.38839381952830     1.38839381952830     1.38839381952830
