CRYSTAL
PRIMVEC
 0.00000000000000 2.46415557705204 2.46415557705204
 2.46415557705204 0.00000000000000 2.46415557705204
 2.46415557705204 2.46415557705204 0.00000000000000
PRIMCOORD
 1 1
 81     0.00000000000000     0.00000000000000     0.00000000000000
