CRYSTAL
PRIMVEC
 -2.02920967673913 2.02920967673913 2.02920967673913
 2.02920967673913 -2.02920967673913 2.02920967673913
 2.02920967673913 2.02920967673913 -2.02920967673913
PRIMCOORD
 1 1
 69     0.00000000000000     0.00000000000000     0.00000000000000
