CRYSTAL
PRIMVEC
 0.00000000000000 4.30302650244168 4.30302650244168
 4.30302650244168 0.00000000000000 4.30302650244168
 4.30302650244168 4.30302650244168 0.00000000000000
PRIMCOORD
 2 1
 69     0.00000000000000     0.00000000000000     0.00000000000000
 69     2.15151325122084     2.15151325122084     2.15151325122084
