CRYSTAL
PRIMVEC
 -1.70466114656242 1.70466114656242 1.70466114656242
 1.70466114656242 -1.70466114656242 1.70466114656242
 1.70466114656242 1.70466114656242 -1.70466114656242
PRIMCOORD
 1 1
 92     0.00000000000000     0.00000000000000     0.00000000000000
