CRYSTAL
PRIMVEC
 0.00000000000000 2.89667912695540 2.89667912695540
 2.89667912695540 0.00000000000000 2.89667912695540
 2.89667912695540 2.89667912695540 0.00000000000000
PRIMCOORD
 2 1
 92     0.00000000000000     0.00000000000000     0.00000000000000
 92     1.44833956347770     1.44833956347770     1.44833956347770
