CRYSTAL
PRIMVEC
 0.00000000000000 2.20047346550119 2.20047346550119
 2.20047346550119 0.00000000000000 2.20047346550119
 2.20047346550119 2.20047346550119 0.00000000000000
PRIMCOORD
 1 1
 92     0.00000000000000     0.00000000000000     0.00000000000000
