CRYSTAL
PRIMVEC
 2.65221084754306 0.00000000000000 0.00000000000000
 0.00000000000000 2.65221084754306 0.00000000000000
 0.00000000000000 0.00000000000000 2.65221084754306
PRIMCOORD
 1 1
 92     0.00000000000000     0.00000000000000     0.00000000000000
