CRYSTAL
PRIMVEC
 0.00000000000000 2.61360847750778 2.61360847750778
 2.61360847750778 0.00000000000000 2.61360847750778
 2.61360847750778 2.61360847750778 0.00000000000000
PRIMCOORD
 2 1
 23     0.00000000000000     0.00000000000000     0.00000000000000
 23     1.30680423875389     1.30680423875389     1.30680423875389
