CRYSTAL
PRIMVEC
 -2.59433503729785 2.59433503729785 2.59433503729785
 2.59433503729785 -2.59433503729785 2.59433503729785
 2.59433503729785 2.59433503729785 -2.59433503729785
PRIMCOORD
 1 1
 54     0.00000000000000     0.00000000000000     0.00000000000000
