CRYSTAL
PRIMVEC
 0.00000000000000 5.37561825390414 5.37561825390414
 5.37561825390414 0.00000000000000 5.37561825390414
 5.37561825390414 5.37561825390414 0.00000000000000
PRIMCOORD
 2 1
 54     0.00000000000000     0.00000000000000     0.00000000000000
 54     2.68780912695207     2.68780912695207     2.68780912695207
