CRYSTAL
PRIMVEC
 0.00000000000000 3.23364990817871 3.23364990817871
 3.23364990817871 0.00000000000000 3.23364990817871
 3.23364990817871 3.23364990817871 0.00000000000000
PRIMCOORD
 1 1
 54     0.00000000000000     0.00000000000000     0.00000000000000
