CRYSTAL
PRIMVEC
 4.59911323666368 0.00000000000000 0.00000000000000
 0.00000000000000 4.59911323666368 0.00000000000000
 0.00000000000000 0.00000000000000 4.59911323666368
PRIMCOORD
 1 1
 54     0.00000000000000     0.00000000000000     0.00000000000000
