CRYSTAL
PRIMVEC
 0.00000000000000 3.46174704991492 3.46174704991492
 3.46174704991492 0.00000000000000 3.46174704991492
 3.46174704991492 3.46174704991492 0.00000000000000
PRIMCOORD
 2 1
 39     0.00000000000000     0.00000000000000     0.00000000000000
 39     1.73087352495746     1.73087352495746     1.73087352495746
