CRYSTAL
PRIMVEC
 -2.03709079406885 2.03709079406885 2.03709079406885
 2.03709079406885 -2.03709079406885 2.03709079406885
 2.03709079406885 2.03709079406885 -2.03709079406885
PRIMCOORD
 1 1
 70     0.00000000000000     0.00000000000000     0.00000000000000
