CRYSTAL
PRIMVEC
 0.00000000000000 4.31238823374644 4.31238823374644
 4.31238823374644 0.00000000000000 4.31238823374644
 4.31238823374644 4.31238823374644 0.00000000000000
PRIMCOORD
 2 1
 70     0.00000000000000     0.00000000000000     0.00000000000000
 70     2.15619411687322     2.15619411687322     2.15619411687322
