CRYSTAL
PRIMVEC
 0.00000000000000 2.60589304120967 2.60589304120967
 2.60589304120967 0.00000000000000 2.60589304120967
 2.60589304120967 2.60589304120967 0.00000000000000
PRIMCOORD
 1 1
 70     0.00000000000000     0.00000000000000     0.00000000000000
