CRYSTAL
PRIMVEC
 3.28894602519247 0.00000000000000 0.00000000000000
 0.00000000000000 3.28894602519247 0.00000000000000
 0.00000000000000 0.00000000000000 3.28894602519247
PRIMCOORD
 1 1
 70     0.00000000000000     0.00000000000000     0.00000000000000
