CRYSTAL
PRIMVEC
 -1.79058301177594 1.79058301177594 1.79058301177594
 1.79058301177594 -1.79058301177594 1.79058301177594
 1.79058301177594 1.79058301177594 -1.79058301177594
PRIMCOORD
 1 1
 40     0.00000000000000     0.00000000000000     0.00000000000000
