CRYSTAL
PRIMVEC
 0.00000000000000 3.09472824419121 3.09472824419121
 3.09472824419121 0.00000000000000 3.09472824419121
 3.09472824419121 3.09472824419121 0.00000000000000
PRIMCOORD
 2 1
 40     0.00000000000000     0.00000000000000     0.00000000000000
 40     1.54736412209560     1.54736412209560     1.54736412209560
