CRYSTAL
PRIMVEC
 2.90625258242610 0.00000000000000 0.00000000000000
 0.00000000000000 2.90625258242610 0.00000000000000
 0.00000000000000 0.00000000000000 2.90625258242610
PRIMCOORD
 1 1
 40     0.00000000000000     0.00000000000000     0.00000000000000
