CRYSTAL
PRIMVEC
 0.00000000000000 2.83475000000000 2.83475000000000
 2.83475000000000 0.00000000000000 2.83475000000000
 2.83475000000000 2.83475000000000 0.00000000000000
PRIMCOORD
 1 1
 89     0.00000000000000     0.00000000000000     0.00000000000000
