CRYSTAL
PRIMVEC
 3.69500000000000 0.00000000000000 0.00000000000000
 0.00000000000000 3.69500000000000 0.00000000000000
 0.00000000000000 0.00000000000000 3.69500000000000
PRIMCOORD
 1 1
 89     0.00000000000000     0.00000000000000     0.00000000000000
