CRYSTAL
PRIMVEC
 -1.61760000000000 1.61760000000000 1.61760000000000
 1.61760000000000 -1.61760000000000 1.61760000000000
 1.61760000000000 1.61760000000000 -1.61760000000000
PRIMCOORD
 1 1
 13     0.00000000000000     0.00000000000000     0.00000000000000
