CRYSTAL
PRIMVEC
 -1.59480000000000 1.59480000000000 1.59480000000000
 1.59480000000000 -1.59480000000000 1.59480000000000
 1.59480000000000 1.59480000000000 -1.59480000000000
PRIMCOORD
 1 1
 95     0.00000000000000     0.00000000000000     0.00000000000000
