CRYSTAL
PRIMVEC
 -2.37480000000000 2.37480000000000 2.37480000000000
 2.37480000000000 -2.37480000000000 2.37480000000000
 2.37480000000000 2.37480000000000 -2.37480000000000
PRIMCOORD
 1 1
 18     0.00000000000000     0.00000000000000     0.00000000000000
