CRYSTAL
PRIMVEC
 -2.15185000000000 2.15185000000000 2.15185000000000
 2.15185000000000 -2.15185000000000 2.15185000000000
 2.15185000000000 2.15185000000000 -2.15185000000000
PRIMCOORD
 1 1
 85     0.00000000000000     0.00000000000000     0.00000000000000
