CRYSTAL
PRIMVEC
 1.88510000000000 0.00000000000000 0.00000000000000
 0.00000000000000 1.88510000000000 0.00000000000000
 0.00000000000000 0.00000000000000 1.88510000000000
PRIMCOORD
 1 1
  5     0.00000000000000     0.00000000000000     0.00000000000000
