CRYSTAL
PRIMVEC
 -1.25020000000000 1.25020000000000 1.25020000000000
 1.25020000000000 -1.25020000000000 1.25020000000000
 1.25020000000000 1.25020000000000 -1.25020000000000
PRIMCOORD
 1 1
  4     0.00000000000000     0.00000000000000     0.00000000000000
