CRYSTAL
PRIMVEC
 -1.88520000000000 1.88520000000000 1.88520000000000
 1.88520000000000 -1.88520000000000 1.88520000000000
 1.88520000000000 1.88520000000000 -1.88520000000000
PRIMCOORD
 1 1
 35     0.00000000000000     0.00000000000000     0.00000000000000
