CRYSTAL
PRIMVEC
 3.10070000000000 0.00000000000000 0.00000000000000
 0.00000000000000 3.10070000000000 0.00000000000000
 0.00000000000000 0.00000000000000 3.10070000000000
PRIMCOORD
 1 1
 35     0.00000000000000     0.00000000000000     0.00000000000000
