CRYSTAL
PRIMVEC
 1.77990000000000 0.00000000000000 0.00000000000000
 0.00000000000000 1.77990000000000 0.00000000000000
 0.00000000000000 0.00000000000000 1.77990000000000
PRIMCOORD
 1 1
  6     0.00000000000000     0.00000000000000     0.00000000000000
