CRYSTAL
PRIMVEC
 -2.19265000000000 2.19265000000000 2.19265000000000
 2.19265000000000 -2.19265000000000 2.19265000000000
 2.19265000000000 2.19265000000000 -2.19265000000000
PRIMCOORD
 1 1
 20     0.00000000000000     0.00000000000000     0.00000000000000
