CRYSTAL
PRIMVEC
 3.52620000000000 0.00000000000000 0.00000000000000
 0.00000000000000 3.52620000000000 0.00000000000000
 0.00000000000000 0.00000000000000 3.52620000000000
PRIMCOORD
 1 1
 20     0.00000000000000     0.00000000000000     0.00000000000000
