CRYSTAL
PRIMVEC
 -1.80140000000000 1.80140000000000 1.80140000000000
 1.80140000000000 -1.80140000000000 1.80140000000000
 1.80140000000000 1.80140000000000 -1.80140000000000
PRIMCOORD
 1 1
 48     0.00000000000000     0.00000000000000     0.00000000000000
