CRYSTAL
PRIMVEC
 2.86250000000000 0.00000000000000 0.00000000000000
 0.00000000000000 2.86250000000000 0.00000000000000
 0.00000000000000 0.00000000000000 2.86250000000000
PRIMCOORD
 1 1
 17     0.00000000000000     0.00000000000000     0.00000000000000
