CRYSTAL
PRIMVEC
 -1.59965000000000 1.59965000000000 1.59965000000000
 1.59965000000000 -1.59965000000000 1.59965000000000
 1.59965000000000 1.59965000000000 -1.59965000000000
PRIMCOORD
 1 1
 96     0.00000000000000     0.00000000000000     0.00000000000000
