CRYSTAL
PRIMVEC
 2.54030000000000 0.00000000000000 0.00000000000000
 0.00000000000000 2.54030000000000 0.00000000000000
 0.00000000000000 0.00000000000000 2.54030000000000
PRIMCOORD
 1 1
 96     0.00000000000000     0.00000000000000     0.00000000000000
