CRYSTAL
PRIMVEC
 0.00000000000000 1.72800000000000 1.72800000000000
 1.72800000000000 0.00000000000000 1.72800000000000
 1.72800000000000 1.72800000000000 0.00000000000000
PRIMCOORD
 1 1
 27     0.00000000000000     0.00000000000000     0.00000000000000
