CRYSTAL
PRIMVEC
 2.28350000000000 0.00000000000000 0.00000000000000
 0.00000000000000 2.28350000000000 0.00000000000000
 0.00000000000000 0.00000000000000 2.28350000000000
PRIMCOORD
 1 1
 27     0.00000000000000     0.00000000000000     0.00000000000000
