CRYSTAL
PRIMVEC
 -1.42455000000000 1.42455000000000 1.42455000000000
 1.42455000000000 -1.42455000000000 1.42455000000000
 1.42455000000000 1.42455000000000 -1.42455000000000
PRIMCOORD
 1 1
 24     0.00000000000000     0.00000000000000     0.00000000000000
