CRYSTAL
PRIMVEC
 2.33930000000000 0.00000000000000 0.00000000000000
 0.00000000000000 2.33930000000000 0.00000000000000
 0.00000000000000 0.00000000000000 2.33930000000000
PRIMCOORD
 1 1
 24     0.00000000000000     0.00000000000000     0.00000000000000
