CRYSTAL
PRIMVEC
 2.40770000000000 0.00000000000000 0.00000000000000
 0.00000000000000 2.40770000000000 0.00000000000000
 0.00000000000000 0.00000000000000 2.40770000000000
PRIMCOORD
 1 1
 29     0.00000000000000     0.00000000000000     0.00000000000000
