CRYSTAL
PRIMVEC
 -1.97970000000000 1.97970000000000 1.97970000000000
 1.97970000000000 -1.97970000000000 1.97970000000000
 1.97970000000000 1.97970000000000 -1.97970000000000
PRIMCOORD
 1 1
 66     0.00000000000000     0.00000000000000     0.00000000000000
