CRYSTAL
PRIMVEC
 0.00000000000000 2.53220000000000 2.53220000000000
 2.53220000000000 0.00000000000000 2.53220000000000
 2.53220000000000 2.53220000000000 0.00000000000000
PRIMCOORD
 1 1
 66     0.00000000000000     0.00000000000000     0.00000000000000
