CRYSTAL
PRIMVEC
 3.15500000000000 0.00000000000000 0.00000000000000
 0.00000000000000 3.15500000000000 0.00000000000000
 0.00000000000000 0.00000000000000 3.15500000000000
PRIMCOORD
 1 1
 66     0.00000000000000     0.00000000000000     0.00000000000000
