CRYSTAL
PRIMVEC
 2.19180000000000 0.00000000000000 0.00000000000000
 0.00000000000000 2.19180000000000 0.00000000000000
 0.00000000000000 0.00000000000000 2.19180000000000
PRIMCOORD
 1 1
  9     0.00000000000000     0.00000000000000     0.00000000000000
