CRYSTAL
PRIMVEC
 5.09640000000000 0.00000000000000 0.00000000000000
 0.00000000000000 5.09640000000000 0.00000000000000
 0.00000000000000 0.00000000000000 5.09640000000000
PRIMCOORD
 1 1
 87     0.00000000000000     0.00000000000000     0.00000000000000
