CRYSTAL
PRIMVEC
 0.00000000000000 2.11275000000000 2.11275000000000
 2.11275000000000 0.00000000000000 2.11275000000000
 2.11275000000000 2.11275000000000 0.00000000000000
PRIMCOORD
 1 1
 31     0.00000000000000     0.00000000000000     0.00000000000000
