CRYSTAL
PRIMVEC
 -1.93350000000000 1.93350000000000 1.93350000000000
 1.93350000000000 -1.93350000000000 1.93350000000000
 1.93350000000000 1.93350000000000 -1.93350000000000
PRIMCOORD
 1 1
 64     0.00000000000000     0.00000000000000     0.00000000000000
