CRYSTAL
PRIMVEC
 2.74500000000000 0.00000000000000 0.00000000000000
 0.00000000000000 2.74500000000000 0.00000000000000
 0.00000000000000 0.00000000000000 2.74500000000000
PRIMCOORD
 1 1
 64     0.00000000000000     0.00000000000000     0.00000000000000
