CRYSTAL
PRIMVEC
 -1.68940000000000 1.68940000000000 1.68940000000000
 1.68940000000000 -1.68940000000000 1.68940000000000
 1.68940000000000 1.68940000000000 -1.68940000000000
PRIMCOORD
 1 1
 32     0.00000000000000     0.00000000000000     0.00000000000000
