CRYSTAL
PRIMVEC
 -0.90460000000000 0.90460000000000 0.90460000000000
 0.90460000000000 -0.90460000000000 0.90460000000000
 0.90460000000000 0.90460000000000 -0.90460000000000
PRIMCOORD
 1 1
  1     0.00000000000000     0.00000000000000     0.00000000000000
