CRYSTAL
PRIMVEC
 0.00000000000000 2.07595000000000 2.07595000000000
 2.07595000000000 0.00000000000000 2.07595000000000
 2.07595000000000 2.07595000000000 0.00000000000000
PRIMCOORD
 1 1
  2     0.00000000000000     0.00000000000000     0.00000000000000
