CRYSTAL
PRIMVEC
 -1.77305000000000 1.77305000000000 1.77305000000000
 1.77305000000000 -1.77305000000000 1.77305000000000
 1.77305000000000 1.77305000000000 -1.77305000000000
PRIMCOORD
 1 1
 72     0.00000000000000     0.00000000000000     0.00000000000000
