CRYSTAL
PRIMVEC
 -1.55590000000000 1.55590000000000 1.55590000000000
 1.55590000000000 -1.55590000000000 1.55590000000000
 1.55590000000000 1.55590000000000 -1.55590000000000
PRIMCOORD
 1 1
 77     0.00000000000000     0.00000000000000     0.00000000000000
