CRYSTAL
PRIMVEC
 0.00000000000000 1.93565000000000 1.93565000000000
 1.93565000000000 0.00000000000000 1.93565000000000
 1.93565000000000 1.93565000000000 0.00000000000000
PRIMCOORD
 1 1
 77     0.00000000000000     0.00000000000000     0.00000000000000
