CRYSTAL
PRIMVEC
 -2.64280000000000 2.64280000000000 2.64280000000000
 2.64280000000000 -2.64280000000000 2.64280000000000
 2.64280000000000 2.64280000000000 -2.64280000000000
PRIMCOORD
 1 1
 19     0.00000000000000     0.00000000000000     0.00000000000000
