CRYSTAL
PRIMVEC
 4.30110000000000 0.00000000000000 0.00000000000000
 0.00000000000000 4.30110000000000 0.00000000000000
 0.00000000000000 0.00000000000000 4.30110000000000
PRIMCOORD
 1 1
 19     0.00000000000000     0.00000000000000     0.00000000000000
