CRYSTAL
PRIMVEC
 -2.56935000000000 2.56935000000000 2.56935000000000
 2.56935000000000 -2.56935000000000 2.56935000000000
 2.56935000000000 2.56935000000000 -2.56935000000000
PRIMCOORD
 1 1
 36     0.00000000000000     0.00000000000000     0.00000000000000
