CRYSTAL
PRIMVEC
 4.36470000000000 0.00000000000000 0.00000000000000
 0.00000000000000 4.36470000000000 0.00000000000000
 0.00000000000000 0.00000000000000 4.36470000000000
PRIMCOORD
 1 1
 36     0.00000000000000     0.00000000000000     0.00000000000000
