CRYSTAL
PRIMVEC
 -2.11415000000000 2.11415000000000 2.11415000000000
 2.11415000000000 -2.11415000000000 2.11415000000000
 2.11415000000000 2.11415000000000 -2.11415000000000
PRIMCOORD
 1 1
 57     0.00000000000000     0.00000000000000     0.00000000000000
