CRYSTAL
PRIMVEC
 -1.71735000000000 1.71735000000000 1.71735000000000
 1.71735000000000 -1.71735000000000 1.71735000000000
 1.71735000000000 1.71735000000000 -1.71735000000000
PRIMCOORD
 1 1
  3     0.00000000000000     0.00000000000000     0.00000000000000
