CRYSTAL
PRIMVEC
 3.20270000000000 0.00000000000000 0.00000000000000
 0.00000000000000 3.20270000000000 0.00000000000000
 0.00000000000000 0.00000000000000 3.20270000000000
PRIMCOORD
 1 1
 71     0.00000000000000     0.00000000000000     0.00000000000000
