CRYSTAL
PRIMVEC
 0.00000000000000 2.26090000000000 2.26090000000000
 2.26090000000000 0.00000000000000 2.26090000000000
 2.26090000000000 2.26090000000000 0.00000000000000
PRIMCOORD
 1 1
 12     0.00000000000000     0.00000000000000     0.00000000000000
