CRYSTAL
PRIMVEC
 2.28390000000000 0.00000000000000 0.00000000000000
 0.00000000000000 2.28390000000000 0.00000000000000
 0.00000000000000 0.00000000000000 2.28390000000000
PRIMCOORD
 1 1
 25     0.00000000000000     0.00000000000000     0.00000000000000
