CRYSTAL
PRIMVEC
 -1.58055000000000 1.58055000000000 1.58055000000000
 1.58055000000000 -1.58055000000000 1.58055000000000
 1.58055000000000 1.58055000000000 -1.58055000000000
PRIMCOORD
 1 1
 42     0.00000000000000     0.00000000000000     0.00000000000000
