CRYSTAL
PRIMVEC
 2.60180000000000 0.00000000000000 0.00000000000000
 0.00000000000000 2.60180000000000 0.00000000000000
 0.00000000000000 0.00000000000000 2.60180000000000
PRIMCOORD
 1 1
 42     0.00000000000000     0.00000000000000     0.00000000000000
