CRYSTAL
PRIMVEC
 -1.21840000000000 1.21840000000000 1.21840000000000
 1.21840000000000 -1.21840000000000 1.21840000000000
 1.21840000000000 1.21840000000000 -1.21840000000000
PRIMCOORD
 1 1
  7     0.00000000000000     0.00000000000000     0.00000000000000
