CRYSTAL
PRIMVEC
 -1.73525000000000 1.73525000000000 1.73525000000000
 1.73525000000000 -1.73525000000000 1.73525000000000
 1.73525000000000 1.73525000000000 -1.73525000000000
PRIMCOORD
 1 1
 60     0.00000000000000     0.00000000000000     0.00000000000000
