CRYSTAL
PRIMVEC
 -1.39705000000000 1.39705000000000 1.39705000000000
 1.39705000000000 -1.39705000000000 1.39705000000000
 1.39705000000000 1.39705000000000 -1.39705000000000
PRIMCOORD
 1 1
 28     0.00000000000000     0.00000000000000     0.00000000000000
