CRYSTAL
PRIMVEC
 0.00000000000000 1.75670000000000 1.75670000000000
 1.75670000000000 0.00000000000000 1.75670000000000
 1.75670000000000 1.75670000000000 0.00000000000000
PRIMCOORD
 1 1
 28     0.00000000000000     0.00000000000000     0.00000000000000
