CRYSTAL
PRIMVEC
 2.32520000000000 0.00000000000000 0.00000000000000
 0.00000000000000 2.32520000000000 0.00000000000000
 0.00000000000000 0.00000000000000 2.32520000000000
PRIMCOORD
 1 1
 28     0.00000000000000     0.00000000000000     0.00000000000000
