CRYSTAL
PRIMVEC
 -1.64380000000000 1.64380000000000 1.64380000000000
 1.64380000000000 -1.64380000000000 1.64380000000000
 1.64380000000000 1.64380000000000 -1.64380000000000
PRIMCOORD
 1 1
 93     0.00000000000000     0.00000000000000     0.00000000000000
