CRYSTAL
PRIMVEC
 1.99550000000000 0.00000000000000 0.00000000000000
 0.00000000000000 1.99550000000000 0.00000000000000
 0.00000000000000 0.00000000000000 1.99550000000000
PRIMCOORD
 1 1
  8     0.00000000000000     0.00000000000000     0.00000000000000
