CRYSTAL
PRIMVEC
 0.00000000000000 1.94070000000000 1.94070000000000
 1.94070000000000 0.00000000000000 1.94070000000000
 1.94070000000000 1.94070000000000 0.00000000000000
PRIMCOORD
 1 1
 15     0.00000000000000     0.00000000000000     0.00000000000000
