CRYSTAL
PRIMVEC
 -1.83365000000000 1.83365000000000 1.83365000000000
 1.83365000000000 -1.83365000000000 1.83365000000000
 1.83365000000000 1.83365000000000 -1.83365000000000
PRIMCOORD
 1 1
 91     0.00000000000000     0.00000000000000     0.00000000000000
