CRYSTAL
PRIMVEC
 -2.00065000000000 2.00065000000000 2.00065000000000
 2.00065000000000 -2.00065000000000 2.00065000000000
 2.00065000000000 2.00065000000000 -2.00065000000000
PRIMCOORD
 1 1
 82     0.00000000000000     0.00000000000000     0.00000000000000
