CRYSTAL
PRIMVEC
 -1.56860000000000 1.56860000000000 1.56860000000000
 1.56860000000000 -1.56860000000000 1.56860000000000
 1.56860000000000 1.56860000000000 -1.56860000000000
PRIMCOORD
 1 1
 46     0.00000000000000     0.00000000000000     0.00000000000000
