CRYSTAL
PRIMVEC
 2.61580000000000 0.00000000000000 0.00000000000000
 0.00000000000000 2.61580000000000 0.00000000000000
 0.00000000000000 0.00000000000000 2.61580000000000
PRIMCOORD
 1 1
 46     0.00000000000000     0.00000000000000     0.00000000000000
