CRYSTAL
PRIMVEC
 -1.79420000000000 1.79420000000000 1.79420000000000
 1.79420000000000 -1.79420000000000 1.79420000000000
 1.79420000000000 1.79420000000000 -1.79420000000000
PRIMCOORD
 1 1
 59     0.00000000000000     0.00000000000000     0.00000000000000
