CRYSTAL
PRIMVEC
 -1.60775000000000 1.60775000000000 1.60775000000000
 1.60775000000000 -1.60775000000000 1.60775000000000
 1.60775000000000 1.60775000000000 -1.60775000000000
PRIMCOORD
 1 1
 94     0.00000000000000     0.00000000000000     0.00000000000000
