CRYSTAL
PRIMVEC
 -2.60850000000000 2.60850000000000 2.60850000000000
 2.60850000000000 -2.60850000000000 2.60850000000000
 2.60850000000000 2.60850000000000 -2.60850000000000
PRIMCOORD
 1 1
 88     0.00000000000000     0.00000000000000     0.00000000000000
