CRYSTAL
PRIMVEC
 -2.83790000000000 2.83790000000000 2.83790000000000
 2.83790000000000 -2.83790000000000 2.83790000000000
 2.83790000000000 2.83790000000000 -2.83790000000000
PRIMCOORD
 1 1
 37     0.00000000000000     0.00000000000000     0.00000000000000
