CRYSTAL
PRIMVEC
 -1.53550000000000 1.53550000000000 1.53550000000000
 1.53550000000000 -1.53550000000000 1.53550000000000
 1.53550000000000 1.53550000000000 -1.53550000000000
PRIMCOORD
 1 1
 45     0.00000000000000     0.00000000000000     0.00000000000000
