CRYSTAL
PRIMVEC
 -2.87985000000000 2.87985000000000 2.87985000000000
 2.87985000000000 -2.87985000000000 2.87985000000000
 2.87985000000000 2.87985000000000 -2.87985000000000
PRIMCOORD
 1 1
 86     0.00000000000000     0.00000000000000     0.00000000000000
