CRYSTAL
PRIMVEC
 -1.57810000000000 1.57810000000000 1.57810000000000
 1.57810000000000 -1.57810000000000 1.57810000000000
 1.57810000000000 1.57810000000000 -1.57810000000000
PRIMCOORD
 1 1
 16     0.00000000000000     0.00000000000000     0.00000000000000
