CRYSTAL
PRIMVEC
 -1.89285000000000 1.89285000000000 1.89285000000000
 1.89285000000000 -1.89285000000000 1.89285000000000
 1.89285000000000 1.89285000000000 -1.89285000000000
PRIMCOORD
 1 1
 51     0.00000000000000     0.00000000000000     0.00000000000000
