CRYSTAL
PRIMVEC
 3.10360000000000 0.00000000000000 0.00000000000000
 0.00000000000000 3.10360000000000 0.00000000000000
 0.00000000000000 0.00000000000000 3.10360000000000
PRIMCOORD
 1 1
 51     0.00000000000000     0.00000000000000     0.00000000000000
