CRYSTAL
PRIMVEC
 2.96580000000000 0.00000000000000 0.00000000000000
 0.00000000000000 2.96580000000000 0.00000000000000
 0.00000000000000 0.00000000000000 2.96580000000000
PRIMCOORD
 1 1
 21     0.00000000000000     0.00000000000000     0.00000000000000
