CRYSTAL
PRIMVEC
 -1.54280000000000 1.54280000000000 1.54280000000000
 1.54280000000000 -1.54280000000000 1.54280000000000
 1.54280000000000 1.54280000000000 -1.54280000000000
PRIMCOORD
 1 1
 14     0.00000000000000     0.00000000000000     0.00000000000000
