CRYSTAL
PRIMVEC
 2.53160000000000 0.00000000000000 0.00000000000000
 0.00000000000000 2.53160000000000 0.00000000000000
 0.00000000000000 0.00000000000000 2.53160000000000
PRIMCOORD
 1 1
 14     0.00000000000000     0.00000000000000     0.00000000000000
