CRYSTAL
PRIMVEC
 -1.75455000000000 1.75455000000000 1.75455000000000
 1.75455000000000 -1.75455000000000 1.75455000000000
 1.75455000000000 1.75455000000000 -1.75455000000000
PRIMCOORD
 1 1
 62     0.00000000000000     0.00000000000000     0.00000000000000
