CRYSTAL
PRIMVEC
 2.57840000000000 0.00000000000000 0.00000000000000
 0.00000000000000 2.57840000000000 0.00000000000000
 0.00000000000000 0.00000000000000 2.57840000000000
PRIMCOORD
 1 1
 62     0.00000000000000     0.00000000000000     0.00000000000000
