CRYSTAL
PRIMVEC
 -1.90490000000000 1.90490000000000 1.90490000000000
 1.90490000000000 -1.90490000000000 1.90490000000000
 1.90490000000000 1.90490000000000 -1.90490000000000
PRIMCOORD
 1 1
 50     0.00000000000000     0.00000000000000     0.00000000000000
