CRYSTAL
PRIMVEC
 -2.38240000000000 2.38240000000000 2.38240000000000
 2.38240000000000 -2.38240000000000 2.38240000000000
 2.38240000000000 2.38240000000000 -2.38240000000000
PRIMCOORD
 1 1
 38     0.00000000000000     0.00000000000000     0.00000000000000
