CRYSTAL
PRIMVEC
 0.00000000000000 3.01730000000000 3.01730000000000
 3.01730000000000 0.00000000000000 3.01730000000000
 3.01730000000000 3.01730000000000 0.00000000000000
PRIMCOORD
 1 1
 38     0.00000000000000     0.00000000000000     0.00000000000000
