CRYSTAL
PRIMVEC
 0.00000000000000 2.11155000000000 2.11155000000000
 2.11155000000000 0.00000000000000 2.11155000000000
 2.11155000000000 2.11155000000000 0.00000000000000
PRIMCOORD
 1 1
 73     0.00000000000000     0.00000000000000     0.00000000000000
