CRYSTAL
PRIMVEC
 -2.01665000000000 2.01665000000000 2.01665000000000
 2.01665000000000 -2.01665000000000 2.01665000000000
 2.01665000000000 2.01665000000000 -2.01665000000000
PRIMCOORD
 1 1
 90     0.00000000000000     0.00000000000000     0.00000000000000
