CRYSTAL
PRIMVEC
 3.32120000000000 0.00000000000000 0.00000000000000
 0.00000000000000 3.32120000000000 0.00000000000000
 0.00000000000000 0.00000000000000 3.32120000000000
PRIMCOORD
 1 1
 69     0.00000000000000     0.00000000000000     0.00000000000000
