CRYSTAL
PRIMVEC
 2.68590000000000 0.00000000000000 0.00000000000000
 0.00000000000000 2.68590000000000 0.00000000000000
 0.00000000000000 0.00000000000000 2.68590000000000
PRIMCOORD
 1 1
 92     0.00000000000000     0.00000000000000     0.00000000000000
