CRYSTAL
PRIMVEC
 0.00000000000000 2.65245000000000 2.65245000000000
 2.65245000000000 0.00000000000000 2.65245000000000
 2.65245000000000 2.65245000000000 0.00000000000000
PRIMCOORD
 2 1
 23     0.00000000000000     0.00000000000000     0.00000000000000
 23     1.32622500000000     1.32622500000000     1.32622500000000
