CRYSTAL
PRIMVEC
 -1.59225000000000 1.59225000000000 1.59225000000000
 1.59225000000000 -1.59225000000000 1.59225000000000
 1.59225000000000 1.59225000000000 -1.59225000000000
PRIMCOORD
 1 1
 74     0.00000000000000     0.00000000000000     0.00000000000000
