CRYSTAL
PRIMVEC
 2.64470000000000 0.00000000000000 0.00000000000000
 0.00000000000000 2.64470000000000 0.00000000000000
 0.00000000000000 0.00000000000000 2.64470000000000
PRIMCOORD
 1 1
 74     0.00000000000000     0.00000000000000     0.00000000000000
