CRYSTAL
PRIMVEC
 -2.81700000000000 2.81700000000000 2.81700000000000
 2.81700000000000 -2.81700000000000 2.81700000000000
 2.81700000000000 2.81700000000000 -2.81700000000000
PRIMCOORD
 1 1
 54     0.00000000000000     0.00000000000000     0.00000000000000
