CRYSTAL
PRIMVEC
 -2.02130000000000 2.02130000000000 2.02130000000000
 2.02130000000000 -2.02130000000000 2.02130000000000
 2.02130000000000 2.02130000000000 -2.02130000000000
PRIMCOORD
 1 1
 39     0.00000000000000     0.00000000000000     0.00000000000000
