CRYSTAL
PRIMVEC
 3.36140000000000 0.00000000000000 0.00000000000000
 0.00000000000000 3.36140000000000 0.00000000000000
 0.00000000000000 0.00000000000000 3.36140000000000
PRIMCOORD
 1 1
 70     0.00000000000000     0.00000000000000     0.00000000000000
