CRYSTAL
PRIMVEC
 0.00000000000000 2.26505000000000 2.26505000000000
 2.26505000000000 0.00000000000000 2.26505000000000
 2.26505000000000 2.26505000000000 0.00000000000000
PRIMCOORD
 1 1
 40     0.00000000000000     0.00000000000000     0.00000000000000
