CRYSTAL
PRIMVEC
 0.00000000000000 3.31923099894072 3.31923099894072
 3.31923099894072 0.00000000000000 3.31923099894072
 3.31923099894072 3.31923099894072 0.00000000000000
PRIMCOORD
 2 1
 17     0.00000000000000     0.00000000000000     0.00000000000000
 17     1.65961549947036     1.65961549947036     1.65961549947036
