CRYSTAL
PRIMVEC
 0.00000000000000 2.26815468428811 2.26815468428811
 2.26815468428811 0.00000000000000 2.26815468428811
 2.26815468428811 2.26815468428811 0.00000000000000
PRIMCOORD
 1 1
 17     0.00000000000000     0.00000000000000     0.00000000000000
