CRYSTAL
PRIMVEC
 -1.40511823728906 1.40511823728906 1.40511823728906
 1.40511823728906 -1.40511823728906 1.40511823728906
 1.40511823728906 1.40511823728906 -1.40511823728906
PRIMCOORD
 1 1
 27     0.00000000000000     0.00000000000000     0.00000000000000
