CRYSTAL
PRIMVEC
 2.33991621430397 0.00000000000000 0.00000000000000
 0.00000000000000 2.33991621430397 0.00000000000000
 0.00000000000000 0.00000000000000 2.33991621430397
PRIMCOORD
 1 1
 27     0.00000000000000     0.00000000000000     0.00000000000000
