CRYSTAL
PRIMVEC
 -1.38958862271144 1.38958862271144 1.38958862271144
 1.38958862271144 -1.38958862271144 1.38958862271144
 1.38958862271144 1.38958862271144 -1.38958862271144
PRIMCOORD
 1 1
  9     0.00000000000000     0.00000000000000     0.00000000000000
