CRYSTAL
PRIMVEC
 0.00000000000000 2.48000145645980 2.48000145645980
 2.48000145645980 0.00000000000000 2.48000145645980
 2.48000145645980 2.48000145645980 0.00000000000000
PRIMCOORD
 2 1
  9     0.00000000000000     0.00000000000000     0.00000000000000
  9     1.24000072822990     1.24000072822990     1.24000072822990
