CRYSTAL
PRIMVEC
 -1.41552030008909 1.41552030008909 1.41552030008909
 1.41552030008909 -1.41552030008909 1.41552030008909
 1.41552030008909 1.41552030008909 -1.41552030008909
PRIMCOORD
 1 1
 26     0.00000000000000     0.00000000000000     0.00000000000000
