CRYSTAL
PRIMVEC
 0.00000000000000 1.74107872297762 1.74107872297762
 1.74107872297762 0.00000000000000 1.74107872297762
 1.74107872297762 1.74107872297762 0.00000000000000
PRIMCOORD
 1 1
 26     0.00000000000000     0.00000000000000     0.00000000000000
