CRYSTAL
PRIMVEC
 2.37016030471647 0.00000000000000 0.00000000000000
 0.00000000000000 2.37016030471647 0.00000000000000
 0.00000000000000 0.00000000000000 2.37016030471647
PRIMCOORD
 1 1
 26     0.00000000000000     0.00000000000000     0.00000000000000
