CRYSTAL
PRIMVEC
 -1.55686296840788 1.55686296840788 1.55686296840788
 1.55686296840788 -1.55686296840788 1.55686296840788
 1.55686296840788 1.55686296840788 -1.55686296840788
PRIMCOORD
 1 1
 77     0.00000000000000     0.00000000000000     0.00000000000000
