CRYSTAL
PRIMVEC
 -1.39817225395895 1.39817225395895 1.39817225395895
 1.39817225395895 -1.39817225395895 1.39817225395895
 1.39817225395895 1.39817225395895 -1.39817225395895
PRIMCOORD
 1 1
 25     0.00000000000000     0.00000000000000     0.00000000000000
