CRYSTAL
PRIMVEC
 2.28610252381939 0.00000000000000 0.00000000000000
 0.00000000000000 2.28610252381939 0.00000000000000
 0.00000000000000 0.00000000000000 2.28610252381939
PRIMCOORD
 1 1
 25     0.00000000000000     0.00000000000000     0.00000000000000
