CRYSTAL
PRIMVEC
 -1.40054006720967 1.40054006720967 1.40054006720967
 1.40054006720967 -1.40054006720967 1.40054006720967
 1.40054006720967 1.40054006720967 -1.40054006720967
PRIMCOORD
 1 1
 28     0.00000000000000     0.00000000000000     0.00000000000000
