CRYSTAL
PRIMVEC
 0.00000000000000 2.55068901182889 2.55068901182889
 2.55068901182889 0.00000000000000 2.55068901182889
 2.55068901182889 2.55068901182889 0.00000000000000
PRIMCOORD
 2 1
 28     0.00000000000000     0.00000000000000     0.00000000000000
 28     1.27534450591444     1.27534450591444     1.27534450591444
