CRYSTAL
PRIMVEC
 -1.41923213843044 1.41923213843044 1.41923213843044
 1.41923213843044 -1.41923213843044 1.41923213843044
 1.41923213843044 1.41923213843044 -1.41923213843044
PRIMCOORD
 1 1
  8     0.00000000000000     0.00000000000000     0.00000000000000
