CRYSTAL
PRIMVEC
 0.00000000000000 1.97159504580911 1.97159504580911
 1.97159504580911 0.00000000000000 1.97159504580911
 1.97159504580911 1.97159504580911 0.00000000000000
PRIMCOORD
 1 1
 46     0.00000000000000     0.00000000000000     0.00000000000000
