CRYSTAL
PRIMVEC
 0.00000000000000 2.88953329423028 2.88953329423028
 2.88953329423028 0.00000000000000 2.88953329423028
 2.88953329423028 2.88953329423028 0.00000000000000
PRIMCOORD
 2 1
 78     0.00000000000000     0.00000000000000     0.00000000000000
 78     1.44476664711514     1.44476664711514     1.44476664711514
