CRYSTAL
PRIMVEC
 -1.53646504236158 1.53646504236158 1.53646504236158
 1.53646504236158 -1.53646504236158 1.53646504236158
 1.53646504236158 1.53646504236158 -1.53646504236158
PRIMCOORD
 1 1
 45     0.00000000000000     0.00000000000000     0.00000000000000
