CRYSTAL
PRIMVEC
 0.00000000000000 3.39896440431129 3.39896440431129
 3.39896440431129 0.00000000000000 3.39896440431129
 3.39896440431129 3.39896440431129 0.00000000000000
PRIMCOORD
 2 1
 21     0.00000000000000     0.00000000000000     0.00000000000000
 21     1.69948220215564     1.69948220215564     1.69948220215564
