CRYSTAL
PRIMVEC
 0.00000000000000 2.73372426228444 2.73372426228444
 2.73372426228444 0.00000000000000 2.73372426228444
 2.73372426228444 2.73372426228444 0.00000000000000
PRIMCOORD
 2 1
 23     0.00000000000000     0.00000000000000     0.00000000000000
 23     1.36686213114222     1.36686213114222     1.36686213114222
