CRYSTAL
PRIMVEC
 3.27394630309708 0.00000000000000 0.00000000000000
 0.00000000000000 3.27394630309708 0.00000000000000
 0.00000000000000 0.00000000000000 3.27394630309708
PRIMCOORD
 1 1
 39     0.00000000000000     0.00000000000000     0.00000000000000
