CRYSTAL
PRIMVEC
 0.00000000000000 3.15811721210505 3.15811721210505
 3.15811721210505 0.00000000000000 3.15811721210505
 3.15811721210505 3.15811721210505 0.00000000000000
PRIMCOORD
 2 1
 40     0.00000000000000     0.00000000000000     0.00000000000000
 40     1.57905860605253     1.57905860605253     1.57905860605253
