CRYSTAL
# Primitive lattice vectors in Angstrom
PRIMVEC
 4.08804198095704 0.00000000000000 0.00000000000000
 -0.00000000000000 4.08804198095704 0.00000000000000
 0.00000000000000 0.00000000000000 4.08804198095704
# Cartesian coordinates in Angstrom.
PRIMCOORD
 4 1
In     0.00000000000000     0.00000000000000     0.00000000000000
O     2.04402099047852     0.00000000000000     0.00000000000000
O     0.00000000000000     2.04402099047852     0.00000000000000
O     0.00000000000000     0.00000000000000     2.04402099047852