CRYSTAL
# Primitive lattice vectors in Angstrom
PRIMVEC
 4.10439622813790 0.00000000000000 0.00000000000000
 -0.00000000000000 4.10439622813790 0.00000000000000
 0.00000000000000 0.00000000000000 4.10439622813790
# Cartesian coordinates in Angstrom.
PRIMCOORD
 4 1
U     0.00000000000000     0.00000000000000     0.00000000000000
O     2.05219811406895     0.00000000000000     0.00000000000000
O     0.00000000000000     2.05219811406895     0.00000000000000
O     0.00000000000000     0.00000000000000     2.05219811406895