CRYSTAL
# Primitive lattice vectors in Angstrom
PRIMVEC
 4.09664673116756 0.00000000000000 0.00000000000000
 -0.00000000000000 4.09664673116756 0.00000000000000
 0.00000000000000 0.00000000000000 4.09664673116756
# Cartesian coordinates in Angstrom.
PRIMCOORD
 4 1
Zr     0.00000000000000     0.00000000000000     0.00000000000000
O     2.04832336558378     0.00000000000000     0.00000000000000
O     0.00000000000000     2.04832336558378     0.00000000000000
O     0.00000000000000     0.00000000000000     2.04832336558378