CRYSTAL
PRIMVEC
 -2.25666174542505 2.25666174542505 2.25666174542505
 2.25666174542505 -2.25666174542505 2.25666174542505
 2.25666174542505 2.25666174542505 -2.25666174542505
PRIMCOORD
 1 1
 89     0.00000000000000     0.00000000000000     0.00000000000000
