CRYSTAL
PRIMVEC
 0.00000000000000 2.83459033350968 2.83459033350968
 2.83459033350968 0.00000000000000 2.83459033350968
 2.83459033350968 2.83459033350968 0.00000000000000
PRIMCOORD
 1 1
 89     0.00000000000000     0.00000000000000     0.00000000000000
