CRYSTAL
PRIMVEC
 3.68800624952992 0.00000000000000 0.00000000000000
 0.00000000000000 3.68800624952992 0.00000000000000
 0.00000000000000 0.00000000000000 3.68800624952992
PRIMCOORD
 1 1
 89     0.00000000000000     0.00000000000000     0.00000000000000
