CRYSTAL
PRIMVEC
 -1.65096603846618 1.65096603846618 1.65096603846618
 1.65096603846618 -1.65096603846618 1.65096603846618
 1.65096603846618 1.65096603846618 -1.65096603846618
PRIMCOORD
 1 1
 47     0.00000000000000     0.00000000000000     0.00000000000000
