CRYSTAL
PRIMVEC
 2.75106077551089 0.00000000000000 0.00000000000000
 0.00000000000000 2.75106077551089 0.00000000000000
 0.00000000000000 0.00000000000000 2.75106077551089
PRIMCOORD
 1 1
 47     0.00000000000000     0.00000000000000     0.00000000000000
