CRYSTAL
PRIMVEC
 -1.61742302102767 1.61742302102767 1.61742302102767
 1.61742302102767 -1.61742302102767 1.61742302102767
 1.61742302102767 1.61742302102767 -1.61742302102767
PRIMCOORD
 1 1
 13     0.00000000000000     0.00000000000000     0.00000000000000
