CRYSTAL
PRIMVEC
 0.00000000000000 2.05525687872672 2.05525687872672
 2.05525687872672 0.00000000000000 2.05525687872672
 2.05525687872672 2.05525687872672 0.00000000000000
PRIMCOORD
 1 1
 95     0.00000000000000     0.00000000000000     0.00000000000000
