CRYSTAL
PRIMVEC
 2.52764165011263 0.00000000000000 0.00000000000000
 0.00000000000000 2.52764165011263 0.00000000000000
 0.00000000000000 0.00000000000000 2.52764165011263
PRIMCOORD
 1 1
 95     0.00000000000000     0.00000000000000     0.00000000000000
