CRYSTAL
PRIMVEC
 -2.37381287730180 2.37381287730180 2.37381287730180
 2.37381287730180 -2.37381287730180 2.37381287730180
 2.37381287730180 2.37381287730180 -2.37381287730180
PRIMCOORD
 1 1
 18     0.00000000000000     0.00000000000000     0.00000000000000
