CRYSTAL
PRIMVEC
 0.00000000000000 2.96878767572634 2.96878767572634
 2.96878767572634 0.00000000000000 2.96878767572634
 2.96878767572634 2.96878767572634 0.00000000000000
PRIMCOORD
 1 1
 18     0.00000000000000     0.00000000000000     0.00000000000000
