CRYSTAL
PRIMVEC
 4.03131599049453 0.00000000000000 0.00000000000000
 0.00000000000000 4.03131599049453 0.00000000000000
 0.00000000000000 0.00000000000000 4.03131599049453
PRIMCOORD
 1 1
 18     0.00000000000000     0.00000000000000     0.00000000000000
