CRYSTAL
PRIMVEC
 -1.68303547265243 1.68303547265243 1.68303547265243
 1.68303547265243 -1.68303547265243 1.68303547265243
 1.68303547265243 1.68303547265243 -1.68303547265243
PRIMCOORD
 1 1
 33     0.00000000000000     0.00000000000000     0.00000000000000
