CRYSTAL
PRIMVEC
 -2.15340932290300 2.15340932290300 2.15340932290300
 2.15340932290300 -2.15340932290300 2.15340932290300
 2.15340932290300 2.15340932290300 -2.15340932290300
PRIMCOORD
 1 1
 85     0.00000000000000     0.00000000000000     0.00000000000000
