CRYSTAL
PRIMVEC
 0.00000000000000 2.69219479029898 2.69219479029898
 2.69219479029898 0.00000000000000 2.69219479029898
 2.69219479029898 2.69219479029898 0.00000000000000
PRIMCOORD
 1 1
 85     0.00000000000000     0.00000000000000     0.00000000000000
