CRYSTAL
PRIMVEC
 3.58697760541859 0.00000000000000 0.00000000000000
 0.00000000000000 3.58697760541859 0.00000000000000
 0.00000000000000 0.00000000000000 3.58697760541859
PRIMCOORD
 1 1
 85     0.00000000000000     0.00000000000000     0.00000000000000
