CRYSTAL
PRIMVEC
 -1.65156832278721 1.65156832278721 1.65156832278721
 1.65156832278721 -1.65156832278721 1.65156832278721
 1.65156832278721 1.65156832278721 -1.65156832278721
PRIMCOORD
 1 1
 79     0.00000000000000     0.00000000000000     0.00000000000000
