CRYSTAL
PRIMVEC
 2.74833077635587 0.00000000000000 0.00000000000000
 0.00000000000000 2.74833077635587 0.00000000000000
 0.00000000000000 0.00000000000000 2.74833077635587
PRIMCOORD
 1 1
 79     0.00000000000000     0.00000000000000     0.00000000000000
