CRYSTAL
PRIMVEC
 -1.15364434349353 1.15364434349353 1.15364434349353
 1.15364434349353 -1.15364434349353 1.15364434349353
 1.15364434349353 1.15364434349353 -1.15364434349353
PRIMCOORD
 1 1
  5     0.00000000000000     0.00000000000000     0.00000000000000
