CRYSTAL
PRIMVEC
 0.00000000000000 1.43371789401278 1.43371789401278
 1.43371789401278 0.00000000000000 1.43371789401278
 1.43371789401278 1.43371789401278 0.00000000000000
PRIMCOORD
 1 1
  5     0.00000000000000     0.00000000000000     0.00000000000000
