CRYSTAL
PRIMVEC
 1.88511910298728 0.00000000000000 0.00000000000000
 0.00000000000000 1.88511910298728 0.00000000000000
 0.00000000000000 0.00000000000000 1.88511910298728
PRIMCOORD
 1 1
  5     0.00000000000000     0.00000000000000     0.00000000000000
