CRYSTAL
PRIMVEC
 -2.51089097926041 2.51089097926041 2.51089097926041
 2.51089097926041 -2.51089097926041 2.51089097926041
 2.51089097926041 2.51089097926041 -2.51089097926041
PRIMCOORD
 1 1
 56     0.00000000000000     0.00000000000000     0.00000000000000
