CRYSTAL
PRIMVEC
 0.00000000000000 3.17851551508437 3.17851551508437
 3.17851551508437 0.00000000000000 3.17851551508437
 3.17851551508437 3.17851551508437 0.00000000000000
PRIMCOORD
 1 1
 56     0.00000000000000     0.00000000000000     0.00000000000000
