CRYSTAL
PRIMVEC
 3.94766635867549 0.00000000000000 0.00000000000000
 0.00000000000000 3.94766635867549 0.00000000000000
 0.00000000000000 0.00000000000000 3.94766635867549
PRIMCOORD
 1 1
 56     0.00000000000000     0.00000000000000     0.00000000000000
