CRYSTAL
PRIMVEC
 0.00000000000000 1.57902508600500 1.57902508600500
 1.57902508600500 0.00000000000000 1.57902508600500
 1.57902508600500 1.57902508600500 0.00000000000000
PRIMCOORD
 1 1
  4     0.00000000000000     0.00000000000000     0.00000000000000
