CRYSTAL
PRIMVEC
 2.17326780601102 0.00000000000000 0.00000000000000
 0.00000000000000 2.17326780601102 0.00000000000000
 0.00000000000000 0.00000000000000 2.17326780601102
PRIMCOORD
 1 1
  4     0.00000000000000     0.00000000000000     0.00000000000000
