CRYSTAL
PRIMVEC
 -1.99293270017890 1.99293270017890 1.99293270017890
 1.99293270017890 -1.99293270017890 1.99293270017890
 1.99293270017890 1.99293270017890 -1.99293270017890
PRIMCOORD
 1 1
 83     0.00000000000000     0.00000000000000     0.00000000000000
