CRYSTAL
PRIMVEC
 3.27676474471093 0.00000000000000 0.00000000000000
 0.00000000000000 3.27676474471093 0.00000000000000
 0.00000000000000 0.00000000000000 3.27676474471093
PRIMCOORD
 1 1
 83     0.00000000000000     0.00000000000000     0.00000000000000
