CRYSTAL
PRIMVEC
 -1.88475584781210 1.88475584781210 1.88475584781210
 1.88475584781210 -1.88475584781210 1.88475584781210
 1.88475584781210 1.88475584781210 -1.88475584781210
PRIMCOORD
 1 1
 35     0.00000000000000     0.00000000000000     0.00000000000000
