CRYSTAL
PRIMVEC
 -1.18739592670087 1.18739592670087 1.18739592670087
 1.18739592670087 -1.18739592670087 1.18739592670087
 1.18739592670087 1.18739592670087 -1.18739592670087
PRIMCOORD
 1 1
  6     0.00000000000000     0.00000000000000     0.00000000000000
