CRYSTAL
PRIMVEC
 1.77656576294779 0.00000000000000 0.00000000000000
 0.00000000000000 1.77656576294779 0.00000000000000
 0.00000000000000 0.00000000000000 1.77656576294779
PRIMCOORD
 1 1
  6     0.00000000000000     0.00000000000000     0.00000000000000
