CRYSTAL
PRIMVEC
 -2.19246503590324 2.19246503590324 2.19246503590324
 2.19246503590324 -2.19246503590324 2.19246503590324
 2.19246503590324 2.19246503590324 -2.19246503590324
PRIMCOORD
 1 1
 20     0.00000000000000     0.00000000000000     0.00000000000000
