CRYSTAL
PRIMVEC
 0.00000000000000 2.76333773616826 2.76333773616826
 2.76333773616826 0.00000000000000 2.76333773616826
 2.76333773616826 2.76333773616826 0.00000000000000
PRIMCOORD
 1 1
 20     0.00000000000000     0.00000000000000     0.00000000000000
