CRYSTAL
PRIMVEC
 3.52243159175653 0.00000000000000 0.00000000000000
 0.00000000000000 3.52243159175653 0.00000000000000
 0.00000000000000 0.00000000000000 3.52243159175653
PRIMCOORD
 1 1
 20     0.00000000000000     0.00000000000000     0.00000000000000
