CRYSTAL
PRIMVEC
 -1.80163637802656 1.80163637802656 1.80163637802656
 1.80163637802656 -1.80163637802656 1.80163637802656
 1.80163637802656 1.80163637802656 -1.80163637802656
PRIMCOORD
 1 1
 48     0.00000000000000     0.00000000000000     0.00000000000000
