CRYSTAL
PRIMVEC
 0.00000000000000 2.25229490520705 2.25229490520705
 2.25229490520705 0.00000000000000 2.25229490520705
 2.25229490520705 2.25229490520705 0.00000000000000
PRIMCOORD
 1 1
 48     0.00000000000000     0.00000000000000     0.00000000000000
