CRYSTAL
PRIMVEC
 -1.89617658081516 1.89617658081516 1.89617658081516
 1.89617658081516 -1.89617658081516 1.89617658081516
 1.89617658081516 1.89617658081516 -1.89617658081516
PRIMCOORD
 1 1
 58     0.00000000000000     0.00000000000000     0.00000000000000
