CRYSTAL
PRIMVEC
 0.00000000000000 2.36731105285144 2.36731105285144
 2.36731105285144 0.00000000000000 2.36731105285144
 2.36731105285144 2.36731105285144 0.00000000000000
PRIMCOORD
 1 1
 58     0.00000000000000     0.00000000000000     0.00000000000000
