CRYSTAL
PRIMVEC
 -1.75070620177773 1.75070620177773 1.75070620177773
 1.75070620177773 -1.75070620177773 1.75070620177773
 1.75070620177773 1.75070620177773 -1.75070620177773
PRIMCOORD
 1 1
 17     0.00000000000000     0.00000000000000     0.00000000000000
