CRYSTAL
PRIMVEC
 -1.60205393872680 1.60205393872680 1.60205393872680
 1.60205393872680 -1.60205393872680 1.60205393872680
 1.60205393872680 1.60205393872680 -1.60205393872680
PRIMCOORD
 1 1
 96     0.00000000000000     0.00000000000000     0.00000000000000
