CRYSTAL
PRIMVEC
 0.00000000000000 2.06015531580273 2.06015531580273
 2.06015531580273 0.00000000000000 2.06015531580273
 2.06015531580273 2.06015531580273 0.00000000000000
PRIMCOORD
 1 1
 96     0.00000000000000     0.00000000000000     0.00000000000000
