CRYSTAL
PRIMVEC
 2.54040839423161 0.00000000000000 0.00000000000000
 0.00000000000000 2.54040839423161 0.00000000000000
 0.00000000000000 0.00000000000000 2.54040839423161
PRIMCOORD
 1 1
 96     0.00000000000000     0.00000000000000     0.00000000000000
