CRYSTAL
PRIMVEC
 -3.07756912813570 3.07756912813570 3.07756912813570
 3.07756912813570 -3.07756912813570 3.07756912813570
 3.07756912813570 3.07756912813570 -3.07756912813570
PRIMCOORD
 1 1
 55     0.00000000000000     0.00000000000000     0.00000000000000
