CRYSTAL
PRIMVEC
 0.00000000000000 3.88984189615441 3.88984189615441
 3.88984189615441 0.00000000000000 3.88984189615441
 3.88984189615441 3.88984189615441 0.00000000000000
PRIMCOORD
 1 1
 55     0.00000000000000     0.00000000000000     0.00000000000000
