CRYSTAL
PRIMVEC
 5.04269211938776 0.00000000000000 0.00000000000000
 0.00000000000000 5.04269211938776 0.00000000000000
 0.00000000000000 0.00000000000000 5.04269211938776
PRIMCOORD
 1 1
 55     0.00000000000000     0.00000000000000     0.00000000000000
