CRYSTAL
PRIMVEC
 -2.00501012429976 2.00501012429976 2.00501012429976
 2.00501012429976 -2.00501012429976 2.00501012429976
 2.00501012429976 2.00501012429976 -2.00501012429976
PRIMCOORD
 1 1
 66     0.00000000000000     0.00000000000000     0.00000000000000
