CRYSTAL
PRIMVEC
 3.16239364194634 0.00000000000000 0.00000000000000
 0.00000000000000 3.16239364194634 0.00000000000000
 0.00000000000000 0.00000000000000 3.16239364194634
PRIMCOORD
 1 1
 66     0.00000000000000     0.00000000000000     0.00000000000000
