CRYSTAL
PRIMVEC
 -2.03912346330608 2.03912346330608 2.03912346330608
 2.03912346330608 -2.03912346330608 2.03912346330608
 2.03912346330608 2.03912346330608 -2.03912346330608
PRIMCOORD
 1 1
 68     0.00000000000000     0.00000000000000     0.00000000000000
