CRYSTAL
PRIMVEC
 0.00000000000000 2.59158068424665 2.59158068424665
 2.59158068424665 0.00000000000000 2.59158068424665
 2.59158068424665 2.59158068424665 0.00000000000000
PRIMCOORD
 1 1
 68     0.00000000000000     0.00000000000000     0.00000000000000
