CRYSTAL
PRIMVEC
 3.29352295759866 0.00000000000000 0.00000000000000
 0.00000000000000 3.29352295759866 0.00000000000000
 0.00000000000000 0.00000000000000 3.29352295759866
PRIMCOORD
 1 1
 68     0.00000000000000     0.00000000000000     0.00000000000000
