CRYSTAL
PRIMVEC
 -1.86926309326785 1.86926309326785 1.86926309326785
 1.86926309326785 -1.86926309326785 1.86926309326785
 1.86926309326785 1.86926309326785 -1.86926309326785
PRIMCOORD
 1 1
 63     0.00000000000000     0.00000000000000     0.00000000000000
