CRYSTAL
PRIMVEC
 2.60551010562927 0.00000000000000 0.00000000000000
 0.00000000000000 2.60551010562927 0.00000000000000
 0.00000000000000 0.00000000000000 2.60551010562927
PRIMCOORD
 1 1
 63     0.00000000000000     0.00000000000000     0.00000000000000
