CRYSTAL
PRIMVEC
 -1.36090466134645 1.36090466134645 1.36090466134645
 1.36090466134645 -1.36090466134645 1.36090466134645
 1.36090466134645 1.36090466134645 -1.36090466134645
PRIMCOORD
 1 1
  9     0.00000000000000     0.00000000000000     0.00000000000000
