CRYSTAL
PRIMVEC
 0.00000000000000 1.71814839774255 1.71814839774255
 1.71814839774255 0.00000000000000 1.71814839774255
 1.71814839774255 1.71814839774255 0.00000000000000
PRIMCOORD
 1 1
  9     0.00000000000000     0.00000000000000     0.00000000000000
