CRYSTAL
PRIMVEC
 2.19121662880155 0.00000000000000 0.00000000000000
 0.00000000000000 2.19121662880155 0.00000000000000
 0.00000000000000 0.00000000000000 2.19121662880155
PRIMCOORD
 1 1
  9     0.00000000000000     0.00000000000000     0.00000000000000
