CRYSTAL
PRIMVEC
 2.26739203879646 0.00000000000000 0.00000000000000
 0.00000000000000 2.26739203879646 0.00000000000000
 0.00000000000000 0.00000000000000 2.26739203879646
PRIMCOORD
 1 1
 26     0.00000000000000     0.00000000000000     0.00000000000000
