CRYSTAL
PRIMVEC
 -3.07654492903978 3.07654492903978 3.07654492903978
 3.07654492903978 -3.07654492903978 3.07654492903978
 3.07654492903978 3.07654492903978 -3.07654492903978
PRIMCOORD
 1 1
 87     0.00000000000000     0.00000000000000     0.00000000000000
