CRYSTAL
PRIMVEC
 5.09496652742812 0.00000000000000 0.00000000000000
 0.00000000000000 5.09496652742812 0.00000000000000
 0.00000000000000 0.00000000000000 5.09496652742812
PRIMCOORD
 1 1
 87     0.00000000000000     0.00000000000000     0.00000000000000
