CRYSTAL
PRIMVEC
 -1.68675120200313 1.68675120200313 1.68675120200313
 1.68675120200313 -1.68675120200313 1.68675120200313
 1.68675120200313 1.68675120200313 -1.68675120200313
PRIMCOORD
 1 1
 31     0.00000000000000     0.00000000000000     0.00000000000000
