CRYSTAL
PRIMVEC
 2.72018104562682 0.00000000000000 0.00000000000000
 0.00000000000000 2.72018104562682 0.00000000000000
 0.00000000000000 0.00000000000000 2.72018104562682
PRIMCOORD
 1 1
 31     0.00000000000000     0.00000000000000     0.00000000000000
