CRYSTAL
PRIMVEC
 -1.93385261303059 1.93385261303059 1.93385261303059
 1.93385261303059 -1.93385261303059 1.93385261303059
 1.93385261303059 1.93385261303059 -1.93385261303059
PRIMCOORD
 1 1
 64     0.00000000000000     0.00000000000000     0.00000000000000
