CRYSTAL
PRIMVEC
 2.74768231409062 0.00000000000000 0.00000000000000
 0.00000000000000 2.74768231409062 0.00000000000000
 0.00000000000000 0.00000000000000 2.74768231409062
PRIMCOORD
 1 1
 64     0.00000000000000     0.00000000000000     0.00000000000000
