CRYSTAL
PRIMVEC
 0.00000000000000 2.14037719019419 2.14037719019419
 2.14037719019419 0.00000000000000 2.14037719019419
 2.14037719019419 2.14037719019419 0.00000000000000
PRIMCOORD
 1 1
 32     0.00000000000000     0.00000000000000     0.00000000000000
