CRYSTAL
PRIMVEC
 2.71109357275178 0.00000000000000 0.00000000000000
 0.00000000000000 2.71109357275178 0.00000000000000
 0.00000000000000 0.00000000000000 2.71109357275178
PRIMCOORD
 1 1
 32     0.00000000000000     0.00000000000000     0.00000000000000
