CRYSTAL
PRIMVEC
 -0.90490367521697 0.90490367521697 0.90490367521697
 0.90490367521697 -0.90490367521697 0.90490367521697
 0.90490367521697 0.90490367521697 -0.90490367521697
PRIMCOORD
 1 1
  1     0.00000000000000     0.00000000000000     0.00000000000000
