CRYSTAL
PRIMVEC
 0.00000000000000 1.14009533630104 1.14009533630104
 1.14009533630104 0.00000000000000 1.14009533630104
 1.14009533630104 1.14009533630104 0.00000000000000
PRIMCOORD
 1 1
  1     0.00000000000000     0.00000000000000     0.00000000000000
