CRYSTAL
PRIMVEC
 1.45553066800055 0.00000000000000 0.00000000000000
 0.00000000000000 1.45553066800055 0.00000000000000
 0.00000000000000 0.00000000000000 1.45553066800055
PRIMCOORD
 1 1
  1     0.00000000000000     0.00000000000000     0.00000000000000
