CRYSTAL
PRIMVEC
 0.00000000000000 2.24291376933375 2.24291376933375
 2.24291376933375 0.00000000000000 2.24291376933375
 2.24291376933375 2.24291376933375 0.00000000000000
PRIMCOORD
 1 1
 72     0.00000000000000     0.00000000000000     0.00000000000000
