CRYSTAL
PRIMVEC
 2.91360010472772 0.00000000000000 0.00000000000000
 0.00000000000000 2.91360010472772 0.00000000000000
 0.00000000000000 0.00000000000000 2.91360010472772
PRIMCOORD
 1 1
 72     0.00000000000000     0.00000000000000     0.00000000000000
