CRYSTAL
PRIMVEC
 -2.02565407458239 2.02565407458239 2.02565407458239
 2.02565407458239 -2.02565407458239 2.02565407458239
 2.02565407458239 2.02565407458239 -2.02565407458239
PRIMCOORD
 1 1
 67     0.00000000000000     0.00000000000000     0.00000000000000
