CRYSTAL
PRIMVEC
 -2.07972890724622 2.07972890724622 2.07972890724622
 2.07972890724622 -2.07972890724622 2.07972890724622
 2.07972890724622 2.07972890724622 -2.07972890724622
PRIMCOORD
 1 1
 53     0.00000000000000     0.00000000000000     0.00000000000000
