CRYSTAL
PRIMVEC
 0.00000000000000 2.59921306690315 2.59921306690315
 2.59921306690315 0.00000000000000 2.59921306690315
 2.59921306690315 2.59921306690315 0.00000000000000
PRIMCOORD
 1 1
 53     0.00000000000000     0.00000000000000     0.00000000000000
