CRYSTAL
PRIMVEC
 0.00000000000000 2.39527453558699 2.39527453558699
 2.39527453558699 0.00000000000000 2.39527453558699
 2.39527453558699 2.39527453558699 0.00000000000000
PRIMCOORD
 1 1
 49     0.00000000000000     0.00000000000000     0.00000000000000
