CRYSTAL
PRIMVEC
 3.09139439122672 0.00000000000000 0.00000000000000
 0.00000000000000 3.09139439122672 0.00000000000000
 0.00000000000000 0.00000000000000 3.09139439122672
PRIMCOORD
 1 1
 49     0.00000000000000     0.00000000000000     0.00000000000000
