CRYSTAL
PRIMVEC
 0.00000000000000 1.93623796670346 1.93623796670346
 1.93623796670346 0.00000000000000 1.93623796670346
 1.93623796670346 1.93623796670346 0.00000000000000
PRIMCOORD
 1 1
 77     0.00000000000000     0.00000000000000     0.00000000000000
