CRYSTAL
PRIMVEC
 2.57181132889901 0.00000000000000 0.00000000000000
 0.00000000000000 2.57181132889901 0.00000000000000
 0.00000000000000 0.00000000000000 2.57181132889901
PRIMCOORD
 1 1
 77     0.00000000000000     0.00000000000000     0.00000000000000
