CRYSTAL
PRIMVEC
 0.00000000000000 3.33215195384852 3.33215195384852
 3.33215195384852 0.00000000000000 3.33215195384852
 3.33215195384852 3.33215195384852 0.00000000000000
PRIMCOORD
 1 1
 19     0.00000000000000     0.00000000000000     0.00000000000000
