CRYSTAL
PRIMVEC
 4.29935591675796 0.00000000000000 0.00000000000000
 0.00000000000000 4.29935591675796 0.00000000000000
 0.00000000000000 0.00000000000000 4.29935591675796
PRIMCOORD
 1 1
 19     0.00000000000000     0.00000000000000     0.00000000000000
