CRYSTAL
PRIMVEC
 -2.56701793891632 2.56701793891632 2.56701793891632
 2.56701793891632 -2.56701793891632 2.56701793891632
 2.56701793891632 2.56701793891632 -2.56701793891632
PRIMCOORD
 1 1
 36     0.00000000000000     0.00000000000000     0.00000000000000
