CRYSTAL
PRIMVEC
 4.35887015547565 0.00000000000000 0.00000000000000
 0.00000000000000 4.35887015547565 0.00000000000000
 0.00000000000000 0.00000000000000 4.35887015547565
PRIMCOORD
 1 1
 36     0.00000000000000     0.00000000000000     0.00000000000000
