CRYSTAL
PRIMVEC
 0.00000000000000 2.64372188857505 2.64372188857505
 2.64372188857505 0.00000000000000 2.64372188857505
 2.64372188857505 2.64372188857505 0.00000000000000
PRIMCOORD
 1 1
 57     0.00000000000000     0.00000000000000     0.00000000000000
