CRYSTAL
PRIMVEC
 3.33276169281987 0.00000000000000 0.00000000000000
 0.00000000000000 3.33276169281987 0.00000000000000
 0.00000000000000 0.00000000000000 3.33276169281987
PRIMCOORD
 1 1
 57     0.00000000000000     0.00000000000000     0.00000000000000
