CRYSTAL
PRIMVEC
 0.00000000000000 2.16205118067264 2.16205118067264
 2.16205118067264 0.00000000000000 2.16205118067264
 2.16205118067264 2.16205118067264 0.00000000000000
PRIMCOORD
 1 1
  3     0.00000000000000     0.00000000000000     0.00000000000000
