CRYSTAL
PRIMVEC
 2.73260520200069 0.00000000000000 0.00000000000000
 0.00000000000000 2.73260520200069 0.00000000000000
 0.00000000000000 0.00000000000000 2.73260520200069
PRIMCOORD
 1 1
  3     0.00000000000000     0.00000000000000     0.00000000000000
