CRYSTAL
PRIMVEC
 -1.94824898520996 1.94824898520996 1.94824898520996
 1.94824898520996 -1.94824898520996 1.94824898520996
 1.94824898520996 1.94824898520996 -1.94824898520996
PRIMCOORD
 1 1
 71     0.00000000000000     0.00000000000000     0.00000000000000
