CRYSTAL
PRIMVEC
 0.00000000000000 2.43742532847308 2.43742532847308
 2.43742532847308 0.00000000000000 2.43742532847308
 2.43742532847308 2.43742532847308 0.00000000000000
PRIMCOORD
 1 1
 71     0.00000000000000     0.00000000000000     0.00000000000000
