CRYSTAL
PRIMVEC
 3.20398053368477 0.00000000000000 0.00000000000000
 0.00000000000000 3.20398053368477 0.00000000000000
 0.00000000000000 0.00000000000000 3.20398053368477
PRIMCOORD
 1 1
 71     0.00000000000000     0.00000000000000     0.00000000000000
