CRYSTAL
PRIMVEC
 -1.78973479976314 1.78973479976314 1.78973479976314
 1.78973479976314 -1.78973479976314 1.78973479976314
 1.78973479976314 1.78973479976314 -1.78973479976314
PRIMCOORD
 1 1
 12     0.00000000000000     0.00000000000000     0.00000000000000
