CRYSTAL
PRIMVEC
 3.02174334974054 0.00000000000000 0.00000000000000
 0.00000000000000 3.02174334974054 0.00000000000000
 0.00000000000000 0.00000000000000 3.02174334974054
PRIMCOORD
 1 1
 12     0.00000000000000     0.00000000000000     0.00000000000000
