CRYSTAL
PRIMVEC
 -1.39190299819964 1.39190299819964 1.39190299819964
 1.39190299819964 -1.39190299819964 1.39190299819964
 1.39190299819964 1.39190299819964 -1.39190299819964
PRIMCOORD
 1 1
 25     0.00000000000000     0.00000000000000     0.00000000000000
