CRYSTAL
PRIMVEC
 2.28339014983283 0.00000000000000 0.00000000000000
 0.00000000000000 2.28339014983283 0.00000000000000
 0.00000000000000 0.00000000000000 2.28339014983283
PRIMCOORD
 1 1
 25     0.00000000000000     0.00000000000000     0.00000000000000
