CRYSTAL
PRIMVEC
 -1.58053862355292 1.58053862355292 1.58053862355292
 1.58053862355292 -1.58053862355292 1.58053862355292
 1.58053862355292 1.58053862355292 -1.58053862355292
PRIMCOORD
 1 1
 42     0.00000000000000     0.00000000000000     0.00000000000000
