CRYSTAL
PRIMVEC
 0.00000000000000 2.00187968305291 2.00187968305291
 2.00187968305291 0.00000000000000 2.00187968305291
 2.00187968305291 2.00187968305291 0.00000000000000
PRIMCOORD
 1 1
 42     0.00000000000000     0.00000000000000     0.00000000000000
