CRYSTAL
PRIMVEC
 2.60144634315911 0.00000000000000 0.00000000000000
 0.00000000000000 2.60144634315911 0.00000000000000
 0.00000000000000 0.00000000000000 2.60144634315911
PRIMCOORD
 1 1
 42     0.00000000000000     0.00000000000000     0.00000000000000
