CRYSTAL
PRIMVEC
 -1.21844706107690 1.21844706107690 1.21844706107690
 1.21844706107690 -1.21844706107690 1.21844706107690
 1.21844706107690 1.21844706107690 -1.21844706107690
PRIMCOORD
 1 1
  7     0.00000000000000     0.00000000000000     0.00000000000000
