CRYSTAL
PRIMVEC
 0.00000000000000 1.56088551189537 1.56088551189537
 1.56088551189537 0.00000000000000 1.56088551189537
 1.56088551189537 1.56088551189537 0.00000000000000
PRIMCOORD
 1 1
  7     0.00000000000000     0.00000000000000     0.00000000000000
