CRYSTAL
PRIMVEC
 1.86481594764223 0.00000000000000 0.00000000000000
 0.00000000000000 1.86481594764223 0.00000000000000
 0.00000000000000 0.00000000000000 1.86481594764223
PRIMCOORD
 1 1
  7     0.00000000000000     0.00000000000000     0.00000000000000
