CRYSTAL
PRIMVEC
 -2.09909384459184 2.09909384459184 2.09909384459184
 2.09909384459184 -2.09909384459184 2.09909384459184
 2.09909384459184 2.09909384459184 -2.09909384459184
PRIMCOORD
 1 1
 11     0.00000000000000     0.00000000000000     0.00000000000000
