CRYSTAL
PRIMVEC
 0.00000000000000 2.64733111477114 2.64733111477114
 2.64733111477114 0.00000000000000 2.64733111477114
 2.64733111477114 2.64733111477114 0.00000000000000
PRIMCOORD
 1 1
 11     0.00000000000000     0.00000000000000     0.00000000000000
