CRYSTAL
PRIMVEC
 3.41306400193048 0.00000000000000 0.00000000000000
 0.00000000000000 3.41306400193048 0.00000000000000
 0.00000000000000 0.00000000000000 3.41306400193048
PRIMCOORD
 1 1
 11     0.00000000000000     0.00000000000000     0.00000000000000
