CRYSTAL
PRIMVEC
 -1.65491308271700 1.65491308271700 1.65491308271700
 1.65491308271700 -1.65491308271700 1.65491308271700
 1.65491308271700 1.65491308271700 -1.65491308271700
PRIMCOORD
 1 1
 41     0.00000000000000     0.00000000000000     0.00000000000000
