CRYSTAL
PRIMVEC
 0.00000000000000 2.29785265784348 2.29785265784348
 2.29785265784348 0.00000000000000 2.29785265784348
 2.29785265784348 2.29785265784348 0.00000000000000
PRIMCOORD
 1 1
 10     0.00000000000000     0.00000000000000     0.00000000000000
