CRYSTAL
PRIMVEC
 -1.39678075765994 1.39678075765994 1.39678075765994
 1.39678075765994 -1.39678075765994 1.39678075765994
 1.39678075765994 1.39678075765994 -1.39678075765994
PRIMCOORD
 1 1
 28     0.00000000000000     0.00000000000000     0.00000000000000
