CRYSTAL
PRIMVEC
 0.00000000000000 2.12859797680978 2.12859797680978
 2.12859797680978 0.00000000000000 2.12859797680978
 2.12859797680978 2.12859797680978 0.00000000000000
PRIMCOORD
 1 1
 93     0.00000000000000     0.00000000000000     0.00000000000000
