CRYSTAL
PRIMVEC
 -1.54626198983108 1.54626198983108 1.54626198983108
 1.54626198983108 -1.54626198983108 1.54626198983108
 1.54626198983108 1.54626198983108 -1.54626198983108
PRIMCOORD
 1 1
 76     0.00000000000000     0.00000000000000     0.00000000000000
