CRYSTAL
PRIMVEC
 0.00000000000000 1.92850607691427 1.92850607691427
 1.92850607691427 0.00000000000000 1.92850607691427
 1.92850607691427 1.92850607691427 0.00000000000000
PRIMCOORD
 1 1
 76     0.00000000000000     0.00000000000000     0.00000000000000
