CRYSTAL
PRIMVEC
 2.55782851152536 0.00000000000000 0.00000000000000
 0.00000000000000 2.55782851152536 0.00000000000000
 0.00000000000000 0.00000000000000 2.55782851152536
PRIMCOORD
 1 1
 76     0.00000000000000     0.00000000000000     0.00000000000000
