CRYSTAL
PRIMVEC
 -1.52878402217951 1.52878402217951 1.52878402217951
 1.52878402217951 -1.52878402217951 1.52878402217951
 1.52878402217951 1.52878402217951 -1.52878402217951
PRIMCOORD
 1 1
 15     0.00000000000000     0.00000000000000     0.00000000000000
