CRYSTAL
PRIMVEC
 2.44440026595994 0.00000000000000 0.00000000000000
 0.00000000000000 2.44440026595994 0.00000000000000
 0.00000000000000 0.00000000000000 2.44440026595994
PRIMCOORD
 1 1
 15     0.00000000000000     0.00000000000000     0.00000000000000
