CRYSTAL
PRIMVEC
 -1.83539303783650 1.83539303783650 1.83539303783650
 1.83539303783650 -1.83539303783650 1.83539303783650
 1.83539303783650 1.83539303783650 -1.83539303783650
PRIMCOORD
 1 1
 91     0.00000000000000     0.00000000000000     0.00000000000000
