CRYSTAL
PRIMVEC
 2.88693488763520 0.00000000000000 0.00000000000000
 0.00000000000000 2.88693488763520 0.00000000000000
 0.00000000000000 0.00000000000000 2.88693488763520
PRIMCOORD
 1 1
 91     0.00000000000000     0.00000000000000     0.00000000000000
