CRYSTAL
PRIMVEC
 -1.99996859879357 1.99996859879357 1.99996859879357
 1.99996859879357 -1.99996859879357 1.99996859879357
 1.99996859879357 1.99996859879357 -1.99996859879357
PRIMCOORD
 1 1
 82     0.00000000000000     0.00000000000000     0.00000000000000
