CRYSTAL
PRIMVEC
 0.00000000000000 2.52327887981958 2.52327887981958
 2.52327887981958 0.00000000000000 2.52327887981958
 2.52327887981958 2.52327887981958 0.00000000000000
PRIMCOORD
 1 1
 82     0.00000000000000     0.00000000000000     0.00000000000000
