CRYSTAL
PRIMVEC
 2.61500344606891 0.00000000000000 0.00000000000000
 0.00000000000000 2.61500344606891 0.00000000000000
 0.00000000000000 0.00000000000000 2.61500344606891
PRIMCOORD
 1 1
 46     0.00000000000000     0.00000000000000     0.00000000000000
