CRYSTAL
PRIMVEC
 2.59004195183797 0.00000000000000 0.00000000000000
 0.00000000000000 2.59004195183797 0.00000000000000
 0.00000000000000 0.00000000000000 2.59004195183797
PRIMCOORD
 1 1
 61     0.00000000000000     0.00000000000000     0.00000000000000
