CRYSTAL
PRIMVEC
 -2.01836040225952 2.01836040225952 2.01836040225952
 2.01836040225952 -2.01836040225952 2.01836040225952
 2.01836040225952 2.01836040225952 -2.01836040225952
PRIMCOORD
 1 1
 84     0.00000000000000     0.00000000000000     0.00000000000000
