CRYSTAL
PRIMVEC
 0.00000000000000 2.53405174126758 2.53405174126758
 2.53405174126758 0.00000000000000 2.53405174126758
 2.53405174126758 2.53405174126758 0.00000000000000
PRIMCOORD
 1 1
 84     0.00000000000000     0.00000000000000     0.00000000000000
