CRYSTAL
PRIMVEC
 3.34979597677529 0.00000000000000 0.00000000000000
 0.00000000000000 3.34979597677529 0.00000000000000
 0.00000000000000 0.00000000000000 3.34979597677529
PRIMCOORD
 1 1
 84     0.00000000000000     0.00000000000000     0.00000000000000
