CRYSTAL
PRIMVEC
 -1.79463231642212 1.79463231642212 1.79463231642212
 1.79463231642212 -1.79463231642212 1.79463231642212
 1.79463231642212 1.79463231642212 -1.79463231642212
PRIMCOORD
 1 1
 59     0.00000000000000     0.00000000000000     0.00000000000000
