CRYSTAL
PRIMVEC
 2.72618492636338 0.00000000000000 0.00000000000000
 0.00000000000000 2.72618492636338 0.00000000000000
 0.00000000000000 0.00000000000000 2.72618492636338
PRIMCOORD
 1 1
 59     0.00000000000000     0.00000000000000     0.00000000000000
