CRYSTAL
PRIMVEC
 0.00000000000000 1.98554544610415 1.98554544610415
 1.98554544610415 0.00000000000000 1.98554544610415
 1.98554544610415 1.98554544610415 0.00000000000000
PRIMCOORD
 1 1
 78     0.00000000000000     0.00000000000000     0.00000000000000
