CRYSTAL
PRIMVEC
 2.62570861974263 0.00000000000000 0.00000000000000
 0.00000000000000 2.62570861974263 0.00000000000000
 0.00000000000000 0.00000000000000 2.62570861974263
PRIMCOORD
 1 1
 78     0.00000000000000     0.00000000000000     0.00000000000000
