CRYSTAL
PRIMVEC
 2.54143908180536 0.00000000000000 0.00000000000000
 0.00000000000000 2.54143908180536 0.00000000000000
 0.00000000000000 0.00000000000000 2.54143908180536
PRIMCOORD
 1 1
 94     0.00000000000000     0.00000000000000     0.00000000000000
