CRYSTAL
PRIMVEC
 -2.60816168928279 2.60816168928279 2.60816168928279
 2.60816168928279 -2.60816168928279 2.60816168928279
 2.60816168928279 2.60816168928279 -2.60816168928279
PRIMCOORD
 1 1
 88     0.00000000000000     0.00000000000000     0.00000000000000
