CRYSTAL
PRIMVEC
 4.22396756752942 0.00000000000000 0.00000000000000
 0.00000000000000 4.22396756752942 0.00000000000000
 0.00000000000000 0.00000000000000 4.22396756752942
PRIMCOORD
 1 1
 88     0.00000000000000     0.00000000000000     0.00000000000000
