CRYSTAL
PRIMVEC
 -2.83640436944898 2.83640436944898 2.83640436944898
 2.83640436944898 -2.83640436944898 2.83640436944898
 2.83640436944898 2.83640436944898 -2.83640436944898
PRIMCOORD
 1 1
 37     0.00000000000000     0.00000000000000     0.00000000000000
