CRYSTAL
PRIMVEC
 -1.55723214911999 1.55723214911999 1.55723214911999
 1.55723214911999 -1.55723214911999 1.55723214911999
 1.55723214911999 1.55723214911999 -1.55723214911999
PRIMCOORD
 1 1
 75     0.00000000000000     0.00000000000000     0.00000000000000
