CRYSTAL
PRIMVEC
 0.00000000000000 1.95822096135674 1.95822096135674
 1.95822096135674 0.00000000000000 1.95822096135674
 1.95822096135674 1.95822096135674 0.00000000000000
PRIMCOORD
 1 1
 75     0.00000000000000     0.00000000000000     0.00000000000000
