CRYSTAL
PRIMVEC
 2.53677577557633 0.00000000000000 0.00000000000000
 0.00000000000000 2.53677577557633 0.00000000000000
 0.00000000000000 0.00000000000000 2.53677577557633
PRIMCOORD
 1 1
 45     0.00000000000000     0.00000000000000     0.00000000000000
