CRYSTAL
PRIMVEC
 -2.88025561732424 2.88025561732424 2.88025561732424
 2.88025561732424 -2.88025561732424 2.88025561732424
 2.88025561732424 2.88025561732424 -2.88025561732424
PRIMCOORD
 1 1
 86     0.00000000000000     0.00000000000000     0.00000000000000
