CRYSTAL
PRIMVEC
 4.90414382025324 0.00000000000000 0.00000000000000
 0.00000000000000 4.90414382025324 0.00000000000000
 0.00000000000000 0.00000000000000 4.90414382025324
PRIMCOORD
 1 1
 86     0.00000000000000     0.00000000000000     0.00000000000000
