CRYSTAL
PRIMVEC
 -1.52693496906707 1.52693496906707 1.52693496906707
 1.52693496906707 -1.52693496906707 1.52693496906707
 1.52693496906707 1.52693496906707 -1.52693496906707
PRIMCOORD
 1 1
 44     0.00000000000000     0.00000000000000     0.00000000000000
