CRYSTAL
PRIMVEC
 0.00000000000000 1.90566125879908 1.90566125879908
 1.90566125879908 0.00000000000000 1.90566125879908
 1.90566125879908 1.90566125879908 0.00000000000000
PRIMCOORD
 1 1
 44     0.00000000000000     0.00000000000000     0.00000000000000
