CRYSTAL
PRIMVEC
 2.51184159149302 0.00000000000000 0.00000000000000
 0.00000000000000 2.51184159149302 0.00000000000000
 0.00000000000000 0.00000000000000 2.51184159149302
PRIMCOORD
 1 1
 44     0.00000000000000     0.00000000000000     0.00000000000000
