CRYSTAL
PRIMVEC
 0.00000000000000 1.99511336148579 1.99511336148579
 1.99511336148579 0.00000000000000 1.99511336148579
 1.99511336148579 1.99511336148579 0.00000000000000
PRIMCOORD
 1 1
 16     0.00000000000000     0.00000000000000     0.00000000000000
