CRYSTAL
PRIMVEC
 -1.89379671222386 1.89379671222386 1.89379671222386
 1.89379671222386 -1.89379671222386 1.89379671222386
 1.89379671222386 1.89379671222386 -1.89379671222386
PRIMCOORD
 1 1
 51     0.00000000000000     0.00000000000000     0.00000000000000
