CRYSTAL
PRIMVEC
 3.10545988791148 0.00000000000000 0.00000000000000
 0.00000000000000 3.10545988791148 0.00000000000000
 0.00000000000000 0.00000000000000 3.10545988791148
PRIMCOORD
 1 1
 51     0.00000000000000     0.00000000000000     0.00000000000000
