CRYSTAL
PRIMVEC
 0.00000000000000 2.16834826866509 2.16834826866509
 2.16834826866509 0.00000000000000 2.16834826866509
 2.16834826866509 2.16834826866509 0.00000000000000
PRIMCOORD
 1 1
 34     0.00000000000000     0.00000000000000     0.00000000000000
