CRYSTAL
PRIMVEC
 2.83038522947589 0.00000000000000 0.00000000000000
 0.00000000000000 2.83038522947589 0.00000000000000
 0.00000000000000 0.00000000000000 2.83038522947589
PRIMCOORD
 1 1
 34     0.00000000000000     0.00000000000000     0.00000000000000
