CRYSTAL
PRIMVEC
 2.57968259116750 0.00000000000000 0.00000000000000
 0.00000000000000 2.57968259116750 0.00000000000000
 0.00000000000000 0.00000000000000 2.57968259116750
PRIMCOORD
 1 1
 62     0.00000000000000     0.00000000000000     0.00000000000000
