CRYSTAL
PRIMVEC
 -1.90427377976853 1.90427377976853 1.90427377976853
 1.90427377976853 -1.90427377976853 1.90427377976853
 1.90427377976853 1.90427377976853 -1.90427377976853
PRIMCOORD
 1 1
 50     0.00000000000000     0.00000000000000     0.00000000000000
