CRYSTAL
PRIMVEC
 3.08756788354254 0.00000000000000 0.00000000000000
 0.00000000000000 3.08756788354254 0.00000000000000
 0.00000000000000 0.00000000000000 3.08756788354254
PRIMCOORD
 1 1
 50     0.00000000000000     0.00000000000000     0.00000000000000
