CRYSTAL
PRIMVEC
 -2.38185345684334 2.38185345684334 2.38185345684334
 2.38185345684334 -2.38185345684334 2.38185345684334
 2.38185345684334 2.38185345684334 -2.38185345684334
PRIMCOORD
 1 1
 38     0.00000000000000     0.00000000000000     0.00000000000000
