CRYSTAL
PRIMVEC
 0.00000000000000 3.01677467218632 3.01677467218632
 3.01677467218632 0.00000000000000 3.01677467218632
 3.01677467218632 3.01677467218632 0.00000000000000
PRIMCOORD
 1 1
 38     0.00000000000000     0.00000000000000     0.00000000000000
