CRYSTAL
PRIMVEC
 3.85718773823739 0.00000000000000 0.00000000000000
 0.00000000000000 3.85718773823739 0.00000000000000
 0.00000000000000 0.00000000000000 3.85718773823739
PRIMCOORD
 1 1
 38     0.00000000000000     0.00000000000000     0.00000000000000
