CRYSTAL
PRIMVEC
 -1.65982736402784 1.65982736402784 1.65982736402784
 1.65982736402784 -1.65982736402784 1.65982736402784
 1.65982736402784 1.65982736402784 -1.65982736402784
PRIMCOORD
 1 1
 73     0.00000000000000     0.00000000000000     0.00000000000000
