CRYSTAL
PRIMVEC
 0.00000000000000 2.11179233397111 2.11179233397111
 2.11179233397111 0.00000000000000 2.11179233397111
 2.11179233397111 2.11179233397111 0.00000000000000
PRIMCOORD
 1 1
 73     0.00000000000000     0.00000000000000     0.00000000000000
