CRYSTAL
PRIMVEC
 -1.97645729301420 1.97645729301420 1.97645729301420
 1.97645729301420 -1.97645729301420 1.97645729301420
 1.97645729301420 1.97645729301420 -1.97645729301420
PRIMCOORD
 1 1
 65     0.00000000000000     0.00000000000000     0.00000000000000
