CRYSTAL
PRIMVEC
 3.02283399084115 0.00000000000000 0.00000000000000
 0.00000000000000 3.02283399084115 0.00000000000000
 0.00000000000000 0.00000000000000 3.02283399084115
PRIMCOORD
 1 1
 65     0.00000000000000     0.00000000000000     0.00000000000000
