CRYSTAL
PRIMVEC
 -1.92512224315450 1.92512224315450 1.92512224315450
 1.92512224315450 -1.92512224315450 1.92512224315450
 1.92512224315450 1.92512224315450 -1.92512224315450
PRIMCOORD
 1 1
 52     0.00000000000000     0.00000000000000     0.00000000000000
