CRYSTAL
PRIMVEC
 0.00000000000000 2.41911912825841 2.41911912825841
 2.41911912825841 0.00000000000000 2.41911912825841
 2.41911912825841 2.41911912825841 0.00000000000000
PRIMCOORD
 1 1
 52     0.00000000000000     0.00000000000000     0.00000000000000
