CRYSTAL
PRIMVEC
 3.20045081005400 0.00000000000000 0.00000000000000
 0.00000000000000 3.20045081005400 0.00000000000000
 0.00000000000000 0.00000000000000 3.20045081005400
PRIMCOORD
 1 1
 52     0.00000000000000     0.00000000000000     0.00000000000000
