CRYSTAL
PRIMVEC
 0.00000000000000 2.52511087894373 2.52511087894373
 2.52511087894373 0.00000000000000 2.52511087894373
 2.52511087894373 2.52511087894373 0.00000000000000
PRIMCOORD
 1 1
 90     0.00000000000000     0.00000000000000     0.00000000000000
