CRYSTAL
PRIMVEC
 -1.62827555830853 1.62827555830853 1.62827555830853
 1.62827555830853 -1.62827555830853 1.62827555830853
 1.62827555830853 1.62827555830853 -1.62827555830853
PRIMCOORD
 1 1
 22     0.00000000000000     0.00000000000000     0.00000000000000
