CRYSTAL
PRIMVEC
 0.00000000000000 2.05656555666050 2.05656555666050
 2.05656555666050 0.00000000000000 2.05656555666050
 2.05656555666050 2.05656555666050 0.00000000000000
PRIMCOORD
 1 1
 22     0.00000000000000     0.00000000000000     0.00000000000000
