CRYSTAL
PRIMVEC
 2.64007776270628 0.00000000000000 0.00000000000000
 0.00000000000000 2.64007776270628 0.00000000000000
 0.00000000000000 0.00000000000000 2.64007776270628
PRIMCOORD
 1 1
 22     0.00000000000000     0.00000000000000     0.00000000000000
