CRYSTAL
PRIMVEC
 -1.98877666357152 1.98877666357152 1.98877666357152
 1.98877666357152 -1.98877666357152 1.98877666357152
 1.98877666357152 1.98877666357152 -1.98877666357152
PRIMCOORD
 1 1
 81     0.00000000000000     0.00000000000000     0.00000000000000
