CRYSTAL
PRIMVEC
 0.00000000000000 2.49860564855129 2.49860564855129
 2.49860564855129 0.00000000000000 2.49860564855129
 2.49860564855129 2.49860564855129 0.00000000000000
PRIMCOORD
 1 1
 81     0.00000000000000     0.00000000000000     0.00000000000000
