CRYSTAL
PRIMVEC
 3.25141657358170 0.00000000000000 0.00000000000000
 0.00000000000000 3.25141657358170 0.00000000000000
 0.00000000000000 0.00000000000000 3.25141657358170
PRIMCOORD
 1 1
 81     0.00000000000000     0.00000000000000     0.00000000000000
