CRYSTAL
PRIMVEC
 -2.04786401066026 2.04786401066026 2.04786401066026
 2.04786401066026 -2.04786401066026 2.04786401066026
 2.04786401066026 2.04786401066026 -2.04786401066026
PRIMCOORD
 1 1
 69     0.00000000000000     0.00000000000000     0.00000000000000
