CRYSTAL
PRIMVEC
 3.32972661676068 0.00000000000000 0.00000000000000
 0.00000000000000 3.32972661676068 0.00000000000000
 0.00000000000000 0.00000000000000 3.32972661676068
PRIMCOORD
 1 1
 69     0.00000000000000     0.00000000000000     0.00000000000000
