CRYSTAL
PRIMVEC
 -1.71599101237745 1.71599101237745 1.71599101237745
 1.71599101237745 -1.71599101237745 1.71599101237745
 1.71599101237745 1.71599101237745 -1.71599101237745
PRIMCOORD
 1 1
 92     0.00000000000000     0.00000000000000     0.00000000000000
