CRYSTAL
PRIMVEC
 2.68019813019700 0.00000000000000 0.00000000000000
 0.00000000000000 2.68019813019700 0.00000000000000
 0.00000000000000 0.00000000000000 2.68019813019700
PRIMCOORD
 1 1
 92     0.00000000000000     0.00000000000000     0.00000000000000
