CRYSTAL
PRIMVEC
 -1.49851990519115 1.49851990519115 1.49851990519115
 1.49851990519115 -1.49851990519115 1.49851990519115
 1.49851990519115 1.49851990519115 -1.49851990519115
PRIMCOORD
 1 1
 23     0.00000000000000     0.00000000000000     0.00000000000000
