CRYSTAL
PRIMVEC
 2.44898829660759 0.00000000000000 0.00000000000000
 0.00000000000000 2.44898829660759 0.00000000000000
 0.00000000000000 0.00000000000000 2.44898829660759
PRIMCOORD
 1 1
 23     0.00000000000000     0.00000000000000     0.00000000000000
