CRYSTAL
PRIMVEC
 -1.59224169481572 1.59224169481572 1.59224169481572
 1.59224169481572 -1.59224169481572 1.59224169481572
 1.59224169481572 1.59224169481572 -1.59224169481572
PRIMCOORD
 1 1
 74     0.00000000000000     0.00000000000000     0.00000000000000
