CRYSTAL
PRIMVEC
 0.00000000000000 2.01871775448864 2.01871775448864
 2.01871775448864 0.00000000000000 2.01871775448864
 2.01871775448864 2.01871775448864 0.00000000000000
PRIMCOORD
 1 1
 74     0.00000000000000     0.00000000000000     0.00000000000000
