CRYSTAL
PRIMVEC
 2.64198976199023 0.00000000000000 0.00000000000000
 0.00000000000000 2.64198976199023 0.00000000000000
 0.00000000000000 0.00000000000000 2.64198976199023
PRIMCOORD
 1 1
 74     0.00000000000000     0.00000000000000     0.00000000000000
