CRYSTAL
PRIMVEC
 -2.81549600050154 2.81549600050154 2.81549600050154
 2.81549600050154 -2.81549600050154 2.81549600050154
 2.81549600050154 2.81549600050154 -2.81549600050154
PRIMCOORD
 1 1
 54     0.00000000000000     0.00000000000000     0.00000000000000
