CRYSTAL
PRIMVEC
 0.00000000000000 3.51896037810812 3.51896037810812
 3.51896037810812 0.00000000000000 3.51896037810812
 3.51896037810812 3.51896037810812 0.00000000000000
PRIMCOORD
 1 1
 54     0.00000000000000     0.00000000000000     0.00000000000000
