CRYSTAL
PRIMVEC
 -2.02123502861236 2.02123502861236 2.02123502861236
 2.02123502861236 -2.02123502861236 2.02123502861236
 2.02123502861236 2.02123502861236 -2.02123502861236
PRIMCOORD
 1 1
 39     0.00000000000000     0.00000000000000     0.00000000000000
