CRYSTAL
PRIMVEC
 3.26539142580039 0.00000000000000 0.00000000000000
 0.00000000000000 3.26539142580039 0.00000000000000
 0.00000000000000 0.00000000000000 3.26539142580039
PRIMCOORD
 1 1
 39     0.00000000000000     0.00000000000000     0.00000000000000
