CRYSTAL
PRIMVEC
 3.37066437900326 0.00000000000000 0.00000000000000
 0.00000000000000 3.37066437900326 0.00000000000000
 0.00000000000000 0.00000000000000 3.37066437900326
PRIMCOORD
 1 1
 70     0.00000000000000     0.00000000000000     0.00000000000000
