CRYSTAL
PRIMVEC
 -1.56568753134845 1.56568753134845 1.56568753134845
 1.56568753134845 -1.56568753134845 1.56568753134845
 1.56568753134845 1.56568753134845 -1.56568753134845
PRIMCOORD
 1 1
 30     0.00000000000000     0.00000000000000     0.00000000000000
