CRYSTAL
PRIMVEC
 0.00000000000000 1.96405184522331 1.96405184522331
 1.96405184522331 0.00000000000000 1.96405184522331
 1.96405184522331 1.96405184522331 0.00000000000000
PRIMCOORD
 1 1
 30     0.00000000000000     0.00000000000000     0.00000000000000
