CRYSTAL
PRIMVEC
 -1.78770882420203 1.78770882420203 1.78770882420203
 1.78770882420203 -1.78770882420203 1.78770882420203
 1.78770882420203 1.78770882420203 -1.78770882420203
PRIMCOORD
 1 1
 40     0.00000000000000     0.00000000000000     0.00000000000000
