CRYSTAL
PRIMVEC
 0.00000000000000 2.26457101205052 2.26457101205052
 2.26457101205052 0.00000000000000 2.26457101205052
 2.26457101205052 2.26457101205052 0.00000000000000
PRIMCOORD
 1 1
 40     0.00000000000000     0.00000000000000     0.00000000000000
