CRYSTAL
PRIMVEC
 2.91109789735967 0.00000000000000 0.00000000000000
 0.00000000000000 2.91109789735967 0.00000000000000
 0.00000000000000 0.00000000000000 2.91109789735967
PRIMCOORD
 1 1
 40     0.00000000000000     0.00000000000000     0.00000000000000
