CRYSTAL
PRIMVEC
 -1.79659277016199 1.79659277016199 1.79659277016199
 1.79659277016199 -1.79659277016199 1.79659277016199
 1.79659277016199 1.79659277016199 -1.79659277016199
PRIMCOORD
 1 1
 17     0.00000000000000     0.00000000000000     0.00000000000000
