CRYSTAL
PRIMVEC
 0.00000000000000 2.53984679732614 2.53984679732614
 2.53984679732614 0.00000000000000 2.53984679732614
 2.53984679732614 2.53984679732614 0.00000000000000
PRIMCOORD
 2 1
 27     0.00000000000000     0.00000000000000     0.00000000000000
 27     1.26992339866307     1.26992339866307     1.26992339866307
