CRYSTAL
PRIMVEC
 2.32995097333495 0.00000000000000 0.00000000000000
 0.00000000000000 2.32995097333495 0.00000000000000
 0.00000000000000 0.00000000000000 2.32995097333495
PRIMCOORD
 1 1
 28     0.00000000000000     0.00000000000000     0.00000000000000
