CRYSTAL
PRIMVEC
 0.00000000000000 2.90493764293239 2.90493764293239
 2.90493764293239 0.00000000000000 2.90493764293239
 2.90493764293239 2.90493764293239 0.00000000000000
PRIMCOORD
 2 1
 46     0.00000000000000     0.00000000000000     0.00000000000000
 46     1.45246882146619     1.45246882146619     1.45246882146619
