CRYSTAL
PRIMVEC
 2.97481022016798 0.00000000000000 0.00000000000000
 0.00000000000000 2.97481022016798 0.00000000000000
 0.00000000000000 0.00000000000000 2.97481022016798
PRIMCOORD
 1 1
 21     0.00000000000000     0.00000000000000     0.00000000000000
