CRYSTAL
PRIMVEC
 0.00000000000000 3.01485424937384 3.01485424937384
 3.01485424937384 0.00000000000000 3.01485424937384
 3.01485424937384 3.01485424937384 0.00000000000000
PRIMCOORD
 2 1
 22     0.00000000000000     0.00000000000000     0.00000000000000
 22     1.50742712468692     1.50742712468692     1.50742712468692
