CRYSTAL
PRIMVEC
 -1.63385548758069 1.63385548758069 1.63385548758069
 1.63385548758069 -1.63385548758069 1.63385548758069
 1.63385548758069 1.63385548758069 -1.63385548758069
PRIMCOORD
 1 1
 47     0.00000000000000     0.00000000000000     0.00000000000000
