CRYSTAL
PRIMVEC
 0.00000000000000 3.05051784949965 3.05051784949965
 3.05051784949965 0.00000000000000 3.05051784949965
 3.05051784949965 3.05051784949965 0.00000000000000
PRIMCOORD
 2 1
 47     0.00000000000000     0.00000000000000     0.00000000000000
 47     1.52525892474982     1.52525892474982     1.52525892474982
