CRYSTAL
PRIMVEC
 2.71680299335911 0.00000000000000 0.00000000000000
 0.00000000000000 2.71680299335911 0.00000000000000
 0.00000000000000 0.00000000000000 2.71680299335911
PRIMCOORD
 1 1
 47     0.00000000000000     0.00000000000000     0.00000000000000
