CRYSTAL
PRIMVEC
 -1.59524016112266 1.59524016112266 1.59524016112266
 1.59524016112266 -1.59524016112266 1.59524016112266
 1.59524016112266 1.59524016112266 -1.59524016112266
PRIMCOORD
 1 1
 13     0.00000000000000     0.00000000000000     0.00000000000000
