CRYSTAL
PRIMVEC
 0.00000000000000 3.01457148448027 3.01457148448027
 3.01457148448027 0.00000000000000 3.01457148448027
 3.01457148448027 3.01457148448027 0.00000000000000
PRIMCOORD
 2 1
 13     0.00000000000000     0.00000000000000     0.00000000000000
 13     1.50728574224014     1.50728574224014     1.50728574224014
