CRYSTAL
PRIMVEC
 0.00000000000000 1.99808604176331 1.99808604176331
 1.99808604176331 0.00000000000000 1.99808604176331
 1.99808604176331 1.99808604176331 0.00000000000000
PRIMCOORD
 1 1
 13     0.00000000000000     0.00000000000000     0.00000000000000
