CRYSTAL
PRIMVEC
 2.70944730401643 0.00000000000000 0.00000000000000
 0.00000000000000 2.70944730401643 0.00000000000000
 0.00000000000000 0.00000000000000 2.70944730401643
PRIMCOORD
 1 1
 13     0.00000000000000     0.00000000000000     0.00000000000000
