CRYSTAL
PRIMVEC
 -1.67587984219321 1.67587984219321 1.67587984219321
 1.67587984219321 -1.67587984219321 1.67587984219321
 1.67587984219321 1.67587984219321 -1.67587984219321
PRIMCOORD
 1 1
 33     0.00000000000000     0.00000000000000     0.00000000000000
