CRYSTAL
PRIMVEC
 0.00000000000000 3.03116046688058 3.03116046688058
 3.03116046688058 0.00000000000000 3.03116046688058
 3.03116046688058 3.03116046688058 0.00000000000000
PRIMCOORD
 2 1
 33     0.00000000000000     0.00000000000000     0.00000000000000
 33     1.51558023344029     1.51558023344029     1.51558023344029
