CRYSTAL
PRIMVEC
 2.70690953588477 0.00000000000000 0.00000000000000
 0.00000000000000 2.70690953588477 0.00000000000000
 0.00000000000000 0.00000000000000 2.70690953588477
PRIMCOORD
 1 1
 33     0.00000000000000     0.00000000000000     0.00000000000000
