CRYSTAL
PRIMVEC
 -1.63985019822860 1.63985019822860 1.63985019822860
 1.63985019822860 -1.63985019822860 1.63985019822860
 1.63985019822860 1.63985019822860 -1.63985019822860
PRIMCOORD
 1 1
 79     0.00000000000000     0.00000000000000     0.00000000000000
