CRYSTAL
PRIMVEC
 0.00000000000000 3.03953654824973 3.03953654824973
 3.03953654824973 0.00000000000000 3.03953654824973
 3.03953654824973 3.03953654824973 0.00000000000000
PRIMCOORD
 2 1
 79     0.00000000000000     0.00000000000000     0.00000000000000
 79     1.51976827412486     1.51976827412486     1.51976827412486
