CRYSTAL
PRIMVEC
 0.00000000000000 2.06349071003802 2.06349071003802
 2.06349071003802 0.00000000000000 2.06349071003802
 2.06349071003802 2.06349071003802 0.00000000000000
PRIMCOORD
 1 1
 79     0.00000000000000     0.00000000000000     0.00000000000000
