CRYSTAL
PRIMVEC
 2.72172164452154 0.00000000000000 0.00000000000000
 0.00000000000000 2.72172164452154 0.00000000000000
 0.00000000000000 0.00000000000000 2.72172164452154
PRIMCOORD
 1 1
 79     0.00000000000000     0.00000000000000     0.00000000000000
