CRYSTAL
PRIMVEC
 -1.14680796935440 1.14680796935440 1.14680796935440
 1.14680796935440 -1.14680796935440 1.14680796935440
 1.14680796935440 1.14680796935440 -1.14680796935440
PRIMCOORD
 1 1
  5     0.00000000000000     0.00000000000000     0.00000000000000
