CRYSTAL
PRIMVEC
 0.00000000000000 2.02662864988565 2.02662864988565
 2.02662864988565 0.00000000000000 2.02662864988565
 2.02662864988565 2.02662864988565 0.00000000000000
PRIMCOORD
 2 1
  5     0.00000000000000     0.00000000000000     0.00000000000000
  5     1.01331432494282     1.01331432494282     1.01331432494282
