CRYSTAL
PRIMVEC
 -2.53418828099004 2.53418828099004 2.53418828099004
 2.53418828099004 -2.53418828099004 2.53418828099004
 2.53418828099004 2.53418828099004 -2.53418828099004
PRIMCOORD
 1 1
 56     0.00000000000000     0.00000000000000     0.00000000000000
