CRYSTAL
PRIMVEC
 0.00000000000000 3.78585637385003 3.78585637385003
 3.78585637385003 0.00000000000000 3.78585637385003
 3.78585637385003 3.78585637385003 0.00000000000000
PRIMCOORD
 2 1
 56     0.00000000000000     0.00000000000000     0.00000000000000
 56     1.89292818692502     1.89292818692502     1.89292818692502
