CRYSTAL
PRIMVEC
 3.91301583029683 0.00000000000000 0.00000000000000
 0.00000000000000 3.91301583029683 0.00000000000000
 0.00000000000000 0.00000000000000 3.91301583029683
PRIMCOORD
 1 1
 56     0.00000000000000     0.00000000000000     0.00000000000000
