CRYSTAL
PRIMVEC
 -1.25046058207169 1.25046058207169 1.25046058207169
 1.25046058207169 -1.25046058207169 1.25046058207169
 1.25046058207169 1.25046058207169 -1.25046058207169
PRIMCOORD
 1 1
  4     0.00000000000000     0.00000000000000     0.00000000000000
