CRYSTAL
PRIMVEC
 2.17225234843256 0.00000000000000 0.00000000000000
 0.00000000000000 2.17225234843256 0.00000000000000
 0.00000000000000 0.00000000000000 2.17225234843256
PRIMCOORD
 1 1
  4     0.00000000000000     0.00000000000000     0.00000000000000
