CRYSTAL
PRIMVEC
 -1.98326308365181 1.98326308365181 1.98326308365181
 1.98326308365181 -1.98326308365181 1.98326308365181
 1.98326308365181 1.98326308365181 -1.98326308365181
PRIMCOORD
 1 1
 83     0.00000000000000     0.00000000000000     0.00000000000000
