CRYSTAL
PRIMVEC
 0.00000000000000 3.61858454576344 3.61858454576344
 3.61858454576344 0.00000000000000 3.61858454576344
 3.61858454576344 3.61858454576344 0.00000000000000
PRIMCOORD
 2 1
 83     0.00000000000000     0.00000000000000     0.00000000000000
 83     1.80929227288172     1.80929227288172     1.80929227288172
