CRYSTAL
PRIMVEC
 -1.87390747948533 1.87390747948533 1.87390747948533
 1.87390747948533 -1.87390747948533 1.87390747948533
 1.87390747948533 1.87390747948533 -1.87390747948533
PRIMCOORD
 1 1
 35     0.00000000000000     0.00000000000000     0.00000000000000
