CRYSTAL
PRIMVEC
 0.00000000000000 2.35407036845954 2.35407036845954
 2.35407036845954 0.00000000000000 2.35407036845954
 2.35407036845954 2.35407036845954 0.00000000000000
PRIMCOORD
 1 1
 35     0.00000000000000     0.00000000000000     0.00000000000000
