CRYSTAL
PRIMVEC
 0.00000000000000 1.77990386036143 1.77990386036143
 1.77990386036143 0.00000000000000 1.77990386036143
 1.77990386036143 1.77990386036143 0.00000000000000
PRIMCOORD
 2 1
  6     0.00000000000000     0.00000000000000     0.00000000000000
  6     0.88995193018071     0.88995193018071     0.88995193018071
