CRYSTAL
PRIMVEC
 1.77637126421038 0.00000000000000 0.00000000000000
 0.00000000000000 1.77637126421038 0.00000000000000
 0.00000000000000 0.00000000000000 1.77637126421038
PRIMCOORD
 1 1
  6     0.00000000000000     0.00000000000000     0.00000000000000
