CRYSTAL
PRIMVEC
 -2.21202205943750 2.21202205943750 2.21202205943750
 2.21202205943750 -2.21202205943750 2.21202205943750
 2.21202205943750 2.21202205943750 -2.21202205943750
PRIMCOORD
 1 1
 20     0.00000000000000     0.00000000000000     0.00000000000000
