CRYSTAL
PRIMVEC
 3.49580034537954 0.00000000000000 0.00000000000000
 0.00000000000000 3.49580034537954 0.00000000000000
 0.00000000000000 0.00000000000000 3.49580034537954
PRIMCOORD
 1 1
 20     0.00000000000000     0.00000000000000     0.00000000000000
