CRYSTAL
PRIMVEC
 -1.76867446893135 1.76867446893135 1.76867446893135
 1.76867446893135 -1.76867446893135 1.76867446893135
 1.76867446893135 1.76867446893135 -1.76867446893135
PRIMCOORD
 1 1
 48     0.00000000000000     0.00000000000000     0.00000000000000
