CRYSTAL
PRIMVEC
 0.00000000000000 3.26068556824288 3.26068556824288
 3.26068556824288 0.00000000000000 3.26068556824288
 3.26068556824288 3.26068556824288 0.00000000000000
PRIMCOORD
 2 1
 48     0.00000000000000     0.00000000000000     0.00000000000000
 48     1.63034278412144     1.63034278412144     1.63034278412144
