CRYSTAL
PRIMVEC
 2.94737744405048 0.00000000000000 0.00000000000000
 0.00000000000000 2.94737744405048 0.00000000000000
 0.00000000000000 0.00000000000000 2.94737744405048
PRIMCOORD
 1 1
 48     0.00000000000000     0.00000000000000     0.00000000000000
