CRYSTAL
PRIMVEC
 -1.73383801575924 1.73383801575924 1.73383801575924
 1.73383801575924 -1.73383801575924 1.73383801575924
 1.73383801575924 1.73383801575924 -1.73383801575924
PRIMCOORD
 1 1
 17     0.00000000000000     0.00000000000000     0.00000000000000
