CRYSTAL
PRIMVEC
 0.00000000000000 3.21066877869144 3.21066877869144
 3.21066877869144 0.00000000000000 3.21066877869144
 3.21066877869144 3.21066877869144 0.00000000000000
PRIMCOORD
 2 1
 17     0.00000000000000     0.00000000000000     0.00000000000000
 17     1.60533438934572     1.60533438934572     1.60533438934572
