CRYSTAL
PRIMVEC
 0.00000000000000 2.18128906520851 2.18128906520851
 2.18128906520851 0.00000000000000 2.18128906520851
 2.18128906520851 2.18128906520851 0.00000000000000
PRIMCOORD
 1 1
 17     0.00000000000000     0.00000000000000     0.00000000000000
