CRYSTAL
PRIMVEC
 2.83930673678829 0.00000000000000 0.00000000000000
 0.00000000000000 2.83930673678829 0.00000000000000
 0.00000000000000 0.00000000000000 2.83930673678829
PRIMCOORD
 1 1
 17     0.00000000000000     0.00000000000000     0.00000000000000
