CRYSTAL
PRIMVEC
 -1.36403248009544 1.36403248009544 1.36403248009544
 1.36403248009544 -1.36403248009544 1.36403248009544
 1.36403248009544 1.36403248009544 -1.36403248009544
PRIMCOORD
 1 1
 27     0.00000000000000     0.00000000000000     0.00000000000000
