CRYSTAL
PRIMVEC
 0.00000000000000 2.42551094851342 2.42551094851342
 2.42551094851342 0.00000000000000 2.42551094851342
 2.42551094851342 2.42551094851342 0.00000000000000
PRIMCOORD
 2 1
 27     0.00000000000000     0.00000000000000     0.00000000000000
 27     1.21275547425671     1.21275547425671     1.21275547425671
