CRYSTAL
PRIMVEC
 2.25155313029558 0.00000000000000 0.00000000000000
 0.00000000000000 2.25155313029558 0.00000000000000
 0.00000000000000 0.00000000000000 2.25155313029558
PRIMCOORD
 1 1
 27     0.00000000000000     0.00000000000000     0.00000000000000
