CRYSTAL
PRIMVEC
 2.32079280761448 0.00000000000000 0.00000000000000
 0.00000000000000 2.32079280761448 0.00000000000000
 0.00000000000000 0.00000000000000 2.32079280761448
PRIMCOORD
 1 1
 24     0.00000000000000     0.00000000000000     0.00000000000000
