CRYSTAL
PRIMVEC
 5.03205675406860 0.00000000000000 0.00000000000000
 0.00000000000000 5.03205675406860 0.00000000000000
 0.00000000000000 0.00000000000000 5.03205675406860
PRIMCOORD
 1 1
 55     0.00000000000000     0.00000000000000     0.00000000000000
