CRYSTAL
PRIMVEC
 0.00000000000000 2.62593179538792 2.62593179538792
 2.62593179538792 0.00000000000000 2.62593179538792
 2.62593179538792 2.62593179538792 0.00000000000000
PRIMCOORD
 2 1
 29     0.00000000000000     0.00000000000000     0.00000000000000
 29     1.31296589769396     1.31296589769396     1.31296589769396
