CRYSTAL
PRIMVEC
 0.00000000000000 2.38978372834331 2.38978372834331
 2.38978372834331 0.00000000000000 2.38978372834331
 2.38978372834331 2.38978372834331 0.00000000000000
PRIMCOORD
 2 1
  9     0.00000000000000     0.00000000000000     0.00000000000000
  9     1.19489186417165     1.19489186417165     1.19489186417165
