CRYSTAL
PRIMVEC
 2.13890681079568 0.00000000000000 0.00000000000000
 0.00000000000000 2.13890681079568 0.00000000000000
 0.00000000000000 0.00000000000000 2.13890681079568
PRIMCOORD
 1 1
  9     0.00000000000000     0.00000000000000     0.00000000000000
