CRYSTAL
PRIMVEC
 -1.36450956366793 1.36450956366793 1.36450956366793
 1.36450956366793 -1.36450956366793 1.36450956366793
 1.36450956366793 1.36450956366793 -1.36450956366793
PRIMCOORD
 1 1
 26     0.00000000000000     0.00000000000000     0.00000000000000
