CRYSTAL
PRIMVEC
 0.00000000000000 2.40630779697161 2.40630779697161
 2.40630779697161 0.00000000000000 2.40630779697161
 2.40630779697161 2.40630779697161 0.00000000000000
PRIMCOORD
 2 1
 26     0.00000000000000     0.00000000000000     0.00000000000000
 26     1.20315389848581     1.20315389848581     1.20315389848581
