CRYSTAL
PRIMVEC
 -3.11756409435925 3.11756409435925 3.11756409435925
 3.11756409435925 -3.11756409435925 3.11756409435925
 3.11756409435925 3.11756409435925 -3.11756409435925
PRIMCOORD
 1 1
 87     0.00000000000000     0.00000000000000     0.00000000000000
