CRYSTAL
PRIMVEC
 0.00000000000000 3.93607081211562 3.93607081211562
 3.93607081211562 0.00000000000000 3.93607081211562
 3.93607081211562 3.93607081211562 0.00000000000000
PRIMCOORD
 1 1
 87     0.00000000000000     0.00000000000000     0.00000000000000
