CRYSTAL
PRIMVEC
 5.06724255097637 0.00000000000000 0.00000000000000
 0.00000000000000 5.06724255097637 0.00000000000000
 0.00000000000000 0.00000000000000 5.06724255097637
PRIMCOORD
 1 1
 87     0.00000000000000     0.00000000000000     0.00000000000000
