CRYSTAL
PRIMVEC
 0.00000000000000 2.88881303741954 2.88881303741954
 2.88881303741954 0.00000000000000 2.88881303741954
 2.88881303741954 2.88881303741954 0.00000000000000
PRIMCOORD
 2 1
 31     0.00000000000000     0.00000000000000     0.00000000000000
 31     1.44440651870977     1.44440651870977     1.44440651870977
