CRYSTAL
PRIMVEC
 2.67365239261455 0.00000000000000 0.00000000000000
 0.00000000000000 2.67365239261455 0.00000000000000
 0.00000000000000 0.00000000000000 2.67365239261455
PRIMCOORD
 1 1
 31     0.00000000000000     0.00000000000000     0.00000000000000
