CRYSTAL
PRIMVEC
 -1.67231245818584 1.67231245818584 1.67231245818584
 1.67231245818584 -1.67231245818584 1.67231245818584
 1.67231245818584 1.67231245818584 -1.67231245818584
PRIMCOORD
 1 1
 32     0.00000000000000     0.00000000000000     0.00000000000000
