CRYSTAL
PRIMVEC
 0.00000000000000 2.83992975282042 2.83992975282042
 2.83992975282042 0.00000000000000 2.83992975282042
 2.83992975282042 2.83992975282042 0.00000000000000
PRIMCOORD
 2 1
 32     0.00000000000000     0.00000000000000     0.00000000000000
 32     1.41996487641021     1.41996487641021     1.41996487641021
