CRYSTAL
PRIMVEC
 2.68017581016399 0.00000000000000 0.00000000000000
 0.00000000000000 2.68017581016399 0.00000000000000
 0.00000000000000 0.00000000000000 2.68017581016399
PRIMCOORD
 1 1
 32     0.00000000000000     0.00000000000000     0.00000000000000
