CRYSTAL
PRIMVEC
 -0.90109335877692 0.90109335877692 0.90109335877692
 0.90109335877692 -0.90109335877692 0.90109335877692
 0.90109335877692 0.90109335877692 -0.90109335877692
PRIMCOORD
 1 1
  1     0.00000000000000     0.00000000000000     0.00000000000000
