CRYSTAL
PRIMVEC
 0.00000000000000 1.49677956630674 1.49677956630674
 1.49677956630674 0.00000000000000 1.49677956630674
 1.49677956630674 1.49677956630674 0.00000000000000
PRIMCOORD
 2 1
  1     0.00000000000000     0.00000000000000     0.00000000000000
  1     0.74838978315337     0.74838978315337     0.74838978315337
