CRYSTAL
PRIMVEC
 1.45432840543680 0.00000000000000 0.00000000000000
 0.00000000000000 1.45432840543680 0.00000000000000
 0.00000000000000 0.00000000000000 1.45432840543680
PRIMCOORD
 1 1
  1     0.00000000000000     0.00000000000000     0.00000000000000
