CRYSTAL
PRIMVEC
 -1.77027541246431 1.77027541246431 1.77027541246431
 1.77027541246431 -1.77027541246431 1.77027541246431
 1.77027541246431 1.77027541246431 -1.77027541246431
PRIMCOORD
 1 1
 72     0.00000000000000     0.00000000000000     0.00000000000000
