CRYSTAL
PRIMVEC
 0.00000000000000 3.23452137606570 3.23452137606570
 3.23452137606570 0.00000000000000 3.23452137606570
 3.23452137606570 3.23452137606570 0.00000000000000
PRIMCOORD
 2 1
 72     0.00000000000000     0.00000000000000     0.00000000000000
 72     1.61726068803285     1.61726068803285     1.61726068803285
