CRYSTAL
PRIMVEC
 2.89781710453591 0.00000000000000 0.00000000000000
 0.00000000000000 2.89781710453591 0.00000000000000
 0.00000000000000 0.00000000000000 2.89781710453591
PRIMCOORD
 1 1
 72     0.00000000000000     0.00000000000000     0.00000000000000
