CRYSTAL
PRIMVEC
 0.00000000000000 3.38976450870439 3.38976450870439
 3.38976450870439 0.00000000000000 3.38976450870439
 3.38976450870439 3.38976450870439 0.00000000000000
PRIMCOORD
 2 1
 80     0.00000000000000     0.00000000000000     0.00000000000000
 80     1.69488225435219     1.69488225435219     1.69488225435219
