CRYSTAL
PRIMVEC
 3.01786528100224 0.00000000000000 0.00000000000000
 0.00000000000000 3.01786528100224 0.00000000000000
 0.00000000000000 0.00000000000000 3.01786528100224
PRIMCOORD
 1 1
 80     0.00000000000000     0.00000000000000     0.00000000000000
