CRYSTAL
PRIMVEC
 -2.08070170641748 2.08070170641748 2.08070170641748
 2.08070170641748 -2.08070170641748 2.08070170641748
 2.08070170641748 2.08070170641748 -2.08070170641748
PRIMCOORD
 1 1
 53     0.00000000000000     0.00000000000000     0.00000000000000
