CRYSTAL
PRIMVEC
 0.00000000000000 3.91888988632756 3.91888988632756
 3.91888988632756 0.00000000000000 3.91888988632756
 3.91888988632756 3.91888988632756 0.00000000000000
PRIMCOORD
 2 1
 53     0.00000000000000     0.00000000000000     0.00000000000000
 53     1.95944494316378     1.95944494316378     1.95944494316378
