CRYSTAL
PRIMVEC
 -1.88195317691709 1.88195317691709 1.88195317691709
 1.88195317691709 -1.88195317691709 1.88195317691709
 1.88195317691709 1.88195317691709 -1.88195317691709
PRIMCOORD
 1 1
 49     0.00000000000000     0.00000000000000     0.00000000000000
