CRYSTAL
PRIMVEC
 0.00000000000000 3.30861379131846 3.30861379131846
 3.30861379131846 0.00000000000000 3.30861379131846
 3.30861379131846 3.30861379131846 0.00000000000000
PRIMCOORD
 2 1
 49     0.00000000000000     0.00000000000000     0.00000000000000
 49     1.65430689565923     1.65430689565923     1.65430689565923
