CRYSTAL
PRIMVEC
 3.04403115054290 0.00000000000000 0.00000000000000
 0.00000000000000 3.04403115054290 0.00000000000000
 0.00000000000000 0.00000000000000 3.04403115054290
PRIMCOORD
 1 1
 49     0.00000000000000     0.00000000000000     0.00000000000000
