CRYSTAL
PRIMVEC
 -1.54455962746405 1.54455962746405 1.54455962746405
 1.54455962746405 -1.54455962746405 1.54455962746405
 1.54455962746405 1.54455962746405 -1.54455962746405
PRIMCOORD
 1 1
 77     0.00000000000000     0.00000000000000     0.00000000000000
