CRYSTAL
PRIMVEC
 0.00000000000000 2.76350969750717 2.76350969750717
 2.76350969750717 0.00000000000000 2.76350969750717
 2.76350969750717 2.76350969750717 0.00000000000000
PRIMCOORD
 2 1
 77     0.00000000000000     0.00000000000000     0.00000000000000
 77     1.38175484875358     1.38175484875358     1.38175484875358
