CRYSTAL
PRIMVEC
 -2.67519938925679 2.67519938925679 2.67519938925679
 2.67519938925679 -2.67519938925679 2.67519938925679
 2.67519938925679 2.67519938925679 -2.67519938925679
PRIMCOORD
 1 1
 19     0.00000000000000     0.00000000000000     0.00000000000000
