CRYSTAL
PRIMVEC
 0.00000000000000 4.83726941969587 4.83726941969587
 4.83726941969587 0.00000000000000 4.83726941969587
 4.83726941969587 4.83726941969587 0.00000000000000
PRIMCOORD
 2 1
 19     0.00000000000000     0.00000000000000     0.00000000000000
 19     2.41863470984793     2.41863470984793     2.41863470984793
