CRYSTAL
PRIMVEC
 4.30344021611675 0.00000000000000 0.00000000000000
 0.00000000000000 4.30344021611675 0.00000000000000
 0.00000000000000 0.00000000000000 4.30344021611675
PRIMCOORD
 1 1
 19     0.00000000000000     0.00000000000000     0.00000000000000
