CRYSTAL
PRIMVEC
 -1.73803950624684 1.73803950624684 1.73803950624684
 1.73803950624684 -1.73803950624684 1.73803950624684
 1.73803950624684 1.73803950624684 -1.73803950624684
PRIMCOORD
 1 1
  3     0.00000000000000     0.00000000000000     0.00000000000000
