CRYSTAL
PRIMVEC
 0.00000000000000 2.96290915800702 2.96290915800702
 2.96290915800702 0.00000000000000 2.96290915800702
 2.96290915800702 2.96290915800702 0.00000000000000
PRIMCOORD
 2 1
  3     0.00000000000000     0.00000000000000     0.00000000000000
  3     1.48145457900351     1.48145457900351     1.48145457900351
