CRYSTAL
PRIMVEC
 0.00000000000000 2.18864870780609 2.18864870780609
 2.18864870780609 0.00000000000000 2.18864870780609
 2.18864870780609 2.18864870780609 0.00000000000000
PRIMCOORD
 1 1
  3     0.00000000000000     0.00000000000000     0.00000000000000
