CRYSTAL
PRIMVEC
 0.00000000000000 3.42811535040446 3.42811535040446
 3.42811535040446 0.00000000000000 3.42811535040446
 3.42811535040446 3.42811535040446 0.00000000000000
PRIMCOORD
 2 1
 12     0.00000000000000     0.00000000000000     0.00000000000000
 12     1.71405767520223     1.71405767520223     1.71405767520223
