CRYSTAL
PRIMVEC
 2.99502872607015 0.00000000000000 0.00000000000000
 0.00000000000000 2.99502872607015 0.00000000000000
 0.00000000000000 0.00000000000000 2.99502872607015
PRIMCOORD
 1 1
 12     0.00000000000000     0.00000000000000     0.00000000000000
