CRYSTAL
PRIMVEC
 -1.37995772761934 1.37995772761934 1.37995772761934
 1.37995772761934 -1.37995772761934 1.37995772761934
 1.37995772761934 1.37995772761934 -1.37995772761934
PRIMCOORD
 1 1
 25     0.00000000000000     0.00000000000000     0.00000000000000
