CRYSTAL
PRIMVEC
 0.00000000000000 2.44817422922098 2.44817422922098
 2.44817422922098 0.00000000000000 2.44817422922098
 2.44817422922098 2.44817422922098 0.00000000000000
PRIMCOORD
 2 1
 25     0.00000000000000     0.00000000000000     0.00000000000000
 25     1.22408711461049     1.22408711461049     1.22408711461049
