CRYSTAL
PRIMVEC
 -1.57571952872220 1.57571952872220 1.57571952872220
 1.57571952872220 -1.57571952872220 1.57571952872220
 1.57571952872220 1.57571952872220 -1.57571952872220
PRIMCOORD
 1 1
 42     0.00000000000000     0.00000000000000     0.00000000000000
