CRYSTAL
PRIMVEC
 0.00000000000000 2.82537039240960 2.82537039240960
 2.82537039240960 0.00000000000000 2.82537039240960
 2.82537039240960 2.82537039240960 0.00000000000000
PRIMCOORD
 2 1
 42     0.00000000000000     0.00000000000000     0.00000000000000
 42     1.41268519620480     1.41268519620480     1.41268519620480
