CRYSTAL
PRIMVEC
 0.00000000000000 1.99441895650819 1.99441895650819
 1.99441895650819 0.00000000000000 1.99441895650819
 1.99441895650819 1.99441895650819 0.00000000000000
PRIMCOORD
 1 1
 42     0.00000000000000     0.00000000000000     0.00000000000000
