CRYSTAL
PRIMVEC
 -1.21327455969279 1.21327455969279 1.21327455969279
 1.21327455969279 -1.21327455969279 1.21327455969279
 1.21327455969279 1.21327455969279 -1.21327455969279
PRIMCOORD
 1 1
  7     0.00000000000000     0.00000000000000     0.00000000000000
