CRYSTAL
PRIMVEC
 0.00000000000000 2.07951111856262 2.07951111856262
 2.07951111856262 0.00000000000000 2.07951111856262
 2.07951111856262 2.07951111856262 0.00000000000000
PRIMCOORD
 2 1
  7     0.00000000000000     0.00000000000000     0.00000000000000
  7     1.03975555928131     1.03975555928131     1.03975555928131
