CRYSTAL
PRIMVEC
 1.85302702926869 0.00000000000000 0.00000000000000
 0.00000000000000 1.85302702926869 0.00000000000000
 0.00000000000000 0.00000000000000 1.85302702926869
PRIMCOORD
 1 1
  7     0.00000000000000     0.00000000000000     0.00000000000000
