CRYSTAL
PRIMVEC
 -2.11186513754510 2.11186513754510 2.11186513754510
 2.11186513754510 -2.11186513754510 2.11186513754510
 2.11186513754510 2.11186513754510 -2.11186513754510
PRIMCOORD
 1 1
 11     0.00000000000000     0.00000000000000     0.00000000000000
