CRYSTAL
PRIMVEC
 3.41336855273379 0.00000000000000 0.00000000000000
 0.00000000000000 3.41336855273379 0.00000000000000
 0.00000000000000 0.00000000000000 3.41336855273379
PRIMCOORD
 1 1
 11     0.00000000000000     0.00000000000000     0.00000000000000
