CRYSTAL
PRIMVEC
 -1.37728427098572 1.37728427098572 1.37728427098572
 1.37728427098572 -1.37728427098572 1.37728427098572
 1.37728427098572 1.37728427098572 -1.37728427098572
PRIMCOORD
 1 1
 28     0.00000000000000     0.00000000000000     0.00000000000000
