CRYSTAL
PRIMVEC
 0.00000000000000 2.50535661673083 2.50535661673083
 2.50535661673083 0.00000000000000 2.50535661673083
 2.50535661673083 2.50535661673083 0.00000000000000
PRIMCOORD
 2 1
 28     0.00000000000000     0.00000000000000     0.00000000000000
 28     1.25267830836542     1.25267830836542     1.25267830836542
