CRYSTAL
PRIMVEC
 2.29167971899230 0.00000000000000 0.00000000000000
 0.00000000000000 2.29167971899230 0.00000000000000
 0.00000000000000 0.00000000000000 2.29167971899230
PRIMCOORD
 1 1
 28     0.00000000000000     0.00000000000000     0.00000000000000
