CRYSTAL
PRIMVEC
 -1.23333302289108 1.23333302289108 1.23333302289108
 1.23333302289108 -1.23333302289108 1.23333302289108
 1.23333302289108 1.23333302289108 -1.23333302289108
PRIMCOORD
 1 1
  8     0.00000000000000     0.00000000000000     0.00000000000000
