CRYSTAL
PRIMVEC
 0.00000000000000 2.17620469160676 2.17620469160676
 2.17620469160676 0.00000000000000 2.17620469160676
 2.17620469160676 2.17620469160676 0.00000000000000
PRIMCOORD
 2 1
  8     0.00000000000000     0.00000000000000     0.00000000000000
  8     1.08810234580338     1.08810234580338     1.08810234580338
