CRYSTAL
PRIMVEC
 0.00000000000000 1.56905861402254 1.56905861402254
 1.56905861402254 0.00000000000000 1.56905861402254
 1.56905861402254 1.56905861402254 0.00000000000000
PRIMCOORD
 1 1
  8     0.00000000000000     0.00000000000000     0.00000000000000
