CRYSTAL
PRIMVEC
 -1.53592927236022 1.53592927236022 1.53592927236022
 1.53592927236022 -1.53592927236022 1.53592927236022
 1.53592927236022 1.53592927236022 -1.53592927236022
PRIMCOORD
 1 1
 76     0.00000000000000     0.00000000000000     0.00000000000000
