CRYSTAL
PRIMVEC
 0.00000000000000 2.75960791015858 2.75960791015858
 2.75960791015858 0.00000000000000 2.75960791015858
 2.75960791015858 2.75960791015858 0.00000000000000
PRIMCOORD
 2 1
 76     0.00000000000000     0.00000000000000     0.00000000000000
 76     1.37980395507929     1.37980395507929     1.37980395507929
