CRYSTAL
PRIMVEC
 0.00000000000000 1.91673228391211 1.91673228391211
 1.91673228391211 0.00000000000000 1.91673228391211
 1.91673228391211 1.91673228391211 0.00000000000000
PRIMCOORD
 1 1
 76     0.00000000000000     0.00000000000000     0.00000000000000
