CRYSTAL
PRIMVEC
 2.54055687096930 0.00000000000000 0.00000000000000
 0.00000000000000 2.54055687096930 0.00000000000000
 0.00000000000000 0.00000000000000 2.54055687096930
PRIMCOORD
 1 1
 76     0.00000000000000     0.00000000000000     0.00000000000000
