CRYSTAL
PRIMVEC
 -1.53121995206125 1.53121995206125 1.53121995206125
 1.53121995206125 -1.53121995206125 1.53121995206125
 1.53121995206125 1.53121995206125 -1.53121995206125
PRIMCOORD
 1 1
 15     0.00000000000000     0.00000000000000     0.00000000000000
