CRYSTAL
PRIMVEC
 2.43801874545614 0.00000000000000 0.00000000000000
 0.00000000000000 2.43801874545614 0.00000000000000
 0.00000000000000 0.00000000000000 2.43801874545614
PRIMCOORD
 1 1
 15     0.00000000000000     0.00000000000000     0.00000000000000
