CRYSTAL
PRIMVEC
 0.00000000000000 3.47952998375241 3.47952998375241
 3.47952998375241 0.00000000000000 3.47952998375241
 3.47952998375241 3.47952998375241 0.00000000000000
PRIMCOORD
 2 1
 82     0.00000000000000     0.00000000000000     0.00000000000000
 82     1.73976499187620     1.73976499187620     1.73976499187620
