CRYSTAL
PRIMVEC
 0.00000000000000 2.49929238155100 2.49929238155100
 2.49929238155100 0.00000000000000 2.49929238155100
 2.49929238155100 2.49929238155100 0.00000000000000
PRIMCOORD
 1 1
 82     0.00000000000000     0.00000000000000     0.00000000000000
