CRYSTAL
PRIMVEC
 3.21609319667414 0.00000000000000 0.00000000000000
 0.00000000000000 3.21609319667414 0.00000000000000
 0.00000000000000 0.00000000000000 3.21609319667414
PRIMCOORD
 1 1
 82     0.00000000000000     0.00000000000000     0.00000000000000
