CRYSTAL
PRIMVEC
 -1.55556821109014 1.55556821109014 1.55556821109014
 1.55556821109014 -1.55556821109014 1.55556821109014
 1.55556821109014 1.55556821109014 -1.55556821109014
PRIMCOORD
 1 1
 46     0.00000000000000     0.00000000000000     0.00000000000000
