CRYSTAL
PRIMVEC
 0.00000000000000 2.87023573614143 2.87023573614143
 2.87023573614143 0.00000000000000 2.87023573614143
 2.87023573614143 2.87023573614143 0.00000000000000
PRIMCOORD
 2 1
 46     0.00000000000000     0.00000000000000     0.00000000000000
 46     1.43511786807071     1.43511786807071     1.43511786807071
