CRYSTAL
PRIMVEC
 2.58910281286048 0.00000000000000 0.00000000000000
 0.00000000000000 2.58910281286048 0.00000000000000
 0.00000000000000 0.00000000000000 2.58910281286048
PRIMCOORD
 1 1
 46     0.00000000000000     0.00000000000000     0.00000000000000
