CRYSTAL
PRIMVEC
 -2.01575860179312 2.01575860179312 2.01575860179312
 2.01575860179312 -2.01575860179312 2.01575860179312
 2.01575860179312 2.01575860179312 -2.01575860179312
PRIMCOORD
 1 1
 84     0.00000000000000     0.00000000000000     0.00000000000000
