CRYSTAL
PRIMVEC
 0.00000000000000 2.53250681774934 2.53250681774934
 2.53250681774934 0.00000000000000 2.53250681774934
 2.53250681774934 2.53250681774934 0.00000000000000
PRIMCOORD
 1 1
 84     0.00000000000000     0.00000000000000     0.00000000000000
