CRYSTAL
PRIMVEC
 3.33718033967607 0.00000000000000 0.00000000000000
 0.00000000000000 3.33718033967607 0.00000000000000
 0.00000000000000 0.00000000000000 3.33718033967607
PRIMCOORD
 1 1
 84     0.00000000000000     0.00000000000000     0.00000000000000
