CRYSTAL
PRIMVEC
 -1.57072895343618 1.57072895343618 1.57072895343618
 1.57072895343618 -1.57072895343618 1.57072895343618
 1.57072895343618 1.57072895343618 -1.57072895343618
PRIMCOORD
 1 1
 78     0.00000000000000     0.00000000000000     0.00000000000000
