CRYSTAL
PRIMVEC
 2.60526326127474 0.00000000000000 0.00000000000000
 0.00000000000000 2.60526326127474 0.00000000000000
 0.00000000000000 0.00000000000000 2.60526326127474
PRIMCOORD
 1 1
 78     0.00000000000000     0.00000000000000     0.00000000000000
