CRYSTAL
PRIMVEC
 -2.62805905816366 2.62805905816366 2.62805905816366
 2.62805905816366 -2.62805905816366 2.62805905816366
 2.62805905816366 2.62805905816366 -2.62805905816366
PRIMCOORD
 1 1
 88     0.00000000000000     0.00000000000000     0.00000000000000
