CRYSTAL
PRIMVEC
 0.00000000000000 5.56970016441495 5.56970016441495
 5.56970016441495 0.00000000000000 5.56970016441495
 5.56970016441495 5.56970016441495 0.00000000000000
PRIMCOORD
 2 1
 88     0.00000000000000     0.00000000000000     0.00000000000000
 88     2.78485008220747     2.78485008220747     2.78485008220747
