CRYSTAL
PRIMVEC
 -2.87256801941744 2.87256801941744 2.87256801941744
 2.87256801941744 -2.87256801941744 2.87256801941744
 2.87256801941744 2.87256801941744 -2.87256801941744
PRIMCOORD
 1 1
 37     0.00000000000000     0.00000000000000     0.00000000000000
