CRYSTAL
PRIMVEC
 0.00000000000000 5.21568046643782 5.21568046643782
 5.21568046643782 0.00000000000000 5.21568046643782
 5.21568046643782 5.21568046643782 0.00000000000000
PRIMCOORD
 2 1
 37     0.00000000000000     0.00000000000000     0.00000000000000
 37     2.60784023321891     2.60784023321891     2.60784023321891
