CRYSTAL
PRIMVEC
 4.62220485590805 0.00000000000000 0.00000000000000
 0.00000000000000 4.62220485590805 0.00000000000000
 0.00000000000000 0.00000000000000 4.62220485590805
PRIMCOORD
 1 1
 37     0.00000000000000     0.00000000000000     0.00000000000000
