CRYSTAL
PRIMVEC
 -1.54837881220588 1.54837881220588 1.54837881220588
 1.54837881220588 -1.54837881220588 1.54837881220588
 1.54837881220588 1.54837881220588 -1.54837881220588
PRIMCOORD
 1 1
 75     0.00000000000000     0.00000000000000     0.00000000000000
