CRYSTAL
PRIMVEC
 0.00000000000000 2.80830135150104 2.80830135150104
 2.80830135150104 0.00000000000000 2.80830135150104
 2.80830135150104 2.80830135150104 0.00000000000000
PRIMCOORD
 2 1
 75     0.00000000000000     0.00000000000000     0.00000000000000
 75     1.40415067575052     1.40415067575052     1.40415067575052
