CRYSTAL
PRIMVEC
 0.00000000000000 1.94694188456989 1.94694188456989
 1.94694188456989 0.00000000000000 1.94694188456989
 1.94694188456989 1.94694188456989 0.00000000000000
PRIMCOORD
 1 1
 75     0.00000000000000     0.00000000000000     0.00000000000000
