CRYSTAL
PRIMVEC
 -1.52279132956536 1.52279132956536 1.52279132956536
 1.52279132956536 -1.52279132956536 1.52279132956536
 1.52279132956536 1.52279132956536 -1.52279132956536
PRIMCOORD
 1 1
 45     0.00000000000000     0.00000000000000     0.00000000000000
