CRYSTAL
PRIMVEC
 0.00000000000000 1.90094753112930 1.90094753112930
 1.90094753112930 0.00000000000000 1.90094753112930
 1.90094753112930 1.90094753112930 0.00000000000000
PRIMCOORD
 1 1
 45     0.00000000000000     0.00000000000000     0.00000000000000
