CRYSTAL
PRIMVEC
 2.51387892506781 0.00000000000000 0.00000000000000
 0.00000000000000 2.51387892506781 0.00000000000000
 0.00000000000000 0.00000000000000 2.51387892506781
PRIMCOORD
 1 1
 45     0.00000000000000     0.00000000000000     0.00000000000000
