CRYSTAL
PRIMVEC
 0.00000000000000 2.70736962101322 2.70736962101322
 2.70736962101322 0.00000000000000 2.70736962101322
 2.70736962101322 2.70736962101322 0.00000000000000
PRIMCOORD
 2 1
 44     0.00000000000000     0.00000000000000     0.00000000000000
 44     1.35368481050661     1.35368481050661     1.35368481050661
