CRYSTAL
PRIMVEC
 0.00000000000000 2.88096728443109 2.88096728443109
 2.88096728443109 0.00000000000000 2.88096728443109
 2.88096728443109 2.88096728443109 0.00000000000000
PRIMCOORD
 2 1
 16     0.00000000000000     0.00000000000000     0.00000000000000
 16     1.44048364221554     1.44048364221554     1.44048364221554
