CRYSTAL
PRIMVEC
 0.00000000000000 2.00232552295270 2.00232552295270
 2.00232552295270 0.00000000000000 2.00232552295270
 2.00232552295270 2.00232552295270 0.00000000000000
PRIMCOORD
 1 1
 16     0.00000000000000     0.00000000000000     0.00000000000000
