CRYSTAL
PRIMVEC
 2.57377012164118 0.00000000000000 0.00000000000000
 0.00000000000000 2.57377012164118 0.00000000000000
 0.00000000000000 0.00000000000000 2.57377012164118
PRIMCOORD
 1 1
 16     0.00000000000000     0.00000000000000     0.00000000000000
