CRYSTAL
PRIMVEC
 -1.88940846889305 1.88940846889305 1.88940846889305
 1.88940846889305 -1.88940846889305 1.88940846889305
 1.88940846889305 1.88940846889305 -1.88940846889305
PRIMCOORD
 1 1
 51     0.00000000000000     0.00000000000000     0.00000000000000
