CRYSTAL
PRIMVEC
 3.08804139442668 0.00000000000000 0.00000000000000
 0.00000000000000 3.08804139442668 0.00000000000000
 0.00000000000000 0.00000000000000 3.08804139442668
PRIMCOORD
 1 1
 51     0.00000000000000     0.00000000000000     0.00000000000000
