CRYSTAL
PRIMVEC
 -1.84505338714167 1.84505338714167 1.84505338714167
 1.84505338714167 -1.84505338714167 1.84505338714167
 1.84505338714167 1.84505338714167 -1.84505338714167
PRIMCOORD
 1 1
 21     0.00000000000000     0.00000000000000     0.00000000000000
