CRYSTAL
PRIMVEC
 0.00000000000000 3.16913436987927 3.16913436987927
 3.16913436987927 0.00000000000000 3.16913436987927
 3.16913436987927 3.16913436987927 0.00000000000000
PRIMCOORD
 2 1
 21     0.00000000000000     0.00000000000000     0.00000000000000
 21     1.58456718493964     1.58456718493964     1.58456718493964
