CRYSTAL
PRIMVEC
 0.00000000000000 2.32508876503571 2.32508876503571
 2.32508876503571 0.00000000000000 2.32508876503571
 2.32508876503571 2.32508876503571 0.00000000000000
PRIMCOORD
 1 1
 21     0.00000000000000     0.00000000000000     0.00000000000000
