CRYSTAL
PRIMVEC
 2.95636169210510 0.00000000000000 0.00000000000000
 0.00000000000000 2.95636169210510 0.00000000000000
 0.00000000000000 0.00000000000000 2.95636169210510
PRIMCOORD
 1 1
 21     0.00000000000000     0.00000000000000     0.00000000000000
