CRYSTAL
PRIMVEC
 0.00000000000000 3.14573538029164 3.14573538029164
 3.14573538029164 0.00000000000000 3.14573538029164
 3.14573538029164 3.14573538029164 0.00000000000000
PRIMCOORD
 2 1
 34     0.00000000000000     0.00000000000000     0.00000000000000
 34     1.57286769014582     1.57286769014582     1.57286769014582
