CRYSTAL
PRIMVEC
 0.00000000000000 2.72304544700878 2.72304544700878
 2.72304544700878 0.00000000000000 2.72304544700878
 2.72304544700878 2.72304544700878 0.00000000000000
PRIMCOORD
 2 1
 14     0.00000000000000     0.00000000000000     0.00000000000000
 14     1.36152272350439     1.36152272350439     1.36152272350439
