CRYSTAL
PRIMVEC
 2.52591580176531 0.00000000000000 0.00000000000000
 0.00000000000000 2.52591580176531 0.00000000000000
 0.00000000000000 0.00000000000000 2.52591580176531
PRIMCOORD
 1 1
 14     0.00000000000000     0.00000000000000     0.00000000000000
