CRYSTAL
PRIMVEC
 -1.88943763742431 1.88943763742431 1.88943763742431
 1.88943763742431 -1.88943763742431 1.88943763742431
 1.88943763742431 1.88943763742431 -1.88943763742431
PRIMCOORD
 1 1
 50     0.00000000000000     0.00000000000000     0.00000000000000
