CRYSTAL
PRIMVEC
 0.00000000000000 2.39143523631807 2.39143523631807
 2.39143523631807 0.00000000000000 2.39143523631807
 2.39143523631807 2.39143523631807 0.00000000000000
PRIMCOORD
 1 1
 50     0.00000000000000     0.00000000000000     0.00000000000000
