CRYSTAL
PRIMVEC
 3.05750418846834 0.00000000000000 0.00000000000000
 0.00000000000000 3.05750418846834 0.00000000000000
 0.00000000000000 0.00000000000000 3.05750418846834
PRIMCOORD
 1 1
 50     0.00000000000000     0.00000000000000     0.00000000000000
