CRYSTAL
PRIMVEC
 -2.41030706792095 2.41030706792095 2.41030706792095
 2.41030706792095 -2.41030706792095 2.41030706792095
 2.41030706792095 2.41030706792095 -2.41030706792095
PRIMCOORD
 1 1
 38     0.00000000000000     0.00000000000000     0.00000000000000
