CRYSTAL
PRIMVEC
 3.81743207656831 0.00000000000000 0.00000000000000
 0.00000000000000 3.81743207656831 0.00000000000000
 0.00000000000000 0.00000000000000 3.81743207656831
PRIMCOORD
 1 1
 38     0.00000000000000     0.00000000000000     0.00000000000000
