CRYSTAL
PRIMVEC
 -1.65269142952390 1.65269142952390 1.65269142952390
 1.65269142952390 -1.65269142952390 1.65269142952390
 1.65269142952390 1.65269142952390 -1.65269142952390
PRIMCOORD
 1 1
 73     0.00000000000000     0.00000000000000     0.00000000000000
