CRYSTAL
PRIMVEC
 0.00000000000000 2.10423643281100 2.10423643281100
 2.10423643281100 0.00000000000000 2.10423643281100
 2.10423643281100 2.10423643281100 0.00000000000000
PRIMCOORD
 1 1
 73     0.00000000000000     0.00000000000000     0.00000000000000
