CRYSTAL
PRIMVEC
 2.72848888269137 0.00000000000000 0.00000000000000
 0.00000000000000 2.72848888269137 0.00000000000000
 0.00000000000000 0.00000000000000 2.72848888269137
PRIMCOORD
 1 1
 73     0.00000000000000     0.00000000000000     0.00000000000000
