CRYSTAL
PRIMVEC
 -1.53281885221036 1.53281885221036 1.53281885221036
 1.53281885221036 -1.53281885221036 1.53281885221036
 1.53281885221036 1.53281885221036 -1.53281885221036
PRIMCOORD
 1 1
 43     0.00000000000000     0.00000000000000     0.00000000000000
