CRYSTAL
PRIMVEC
 0.00000000000000 2.75221654334070 2.75221654334070
 2.75221654334070 0.00000000000000 2.75221654334070
 2.75221654334070 2.75221654334070 0.00000000000000
PRIMCOORD
 2 1
 43     0.00000000000000     0.00000000000000     0.00000000000000
 43     1.37610827167035     1.37610827167035     1.37610827167035
