CRYSTAL
PRIMVEC
 0.00000000000000 1.92616083481777 1.92616083481777
 1.92616083481777 0.00000000000000 1.92616083481777
 1.92616083481777 1.92616083481777 0.00000000000000
PRIMCOORD
 1 1
 43     0.00000000000000     0.00000000000000     0.00000000000000
