CRYSTAL
PRIMVEC
 -1.92606451289356 1.92606451289356 1.92606451289356
 1.92606451289356 -1.92606451289356 1.92606451289356
 1.92606451289356 1.92606451289356 -1.92606451289356
PRIMCOORD
 1 1
 52     0.00000000000000     0.00000000000000     0.00000000000000
