CRYSTAL
PRIMVEC
 3.18955697124483 0.00000000000000 0.00000000000000
 0.00000000000000 3.18955697124483 0.00000000000000
 0.00000000000000 0.00000000000000 3.18955697124483
PRIMCOORD
 1 1
 52     0.00000000000000     0.00000000000000     0.00000000000000
