CRYSTAL
PRIMVEC
 0.00000000000000 2.05598183146612 2.05598183146612
 2.05598183146612 0.00000000000000 2.05598183146612
 2.05598183146612 2.05598183146612 0.00000000000000
PRIMCOORD
 1 1
 22     0.00000000000000     0.00000000000000     0.00000000000000
