CRYSTAL
PRIMVEC
 2.62810828624570 0.00000000000000 0.00000000000000
 0.00000000000000 2.62810828624570 0.00000000000000
 0.00000000000000 0.00000000000000 2.62810828624570
PRIMCOORD
 1 1
 22     0.00000000000000     0.00000000000000     0.00000000000000
