CRYSTAL
PRIMVEC
 -1.96110101961651 1.96110101961651 1.96110101961651
 1.96110101961651 -1.96110101961651 1.96110101961651
 1.96110101961651 1.96110101961651 -1.96110101961651
PRIMCOORD
 1 1
 81     0.00000000000000     0.00000000000000     0.00000000000000
