CRYSTAL
PRIMVEC
 0.00000000000000 3.47746541171462 3.47746541171462
 3.47746541171462 0.00000000000000 3.47746541171462
 3.47746541171462 3.47746541171462 0.00000000000000
PRIMCOORD
 2 1
 81     0.00000000000000     0.00000000000000     0.00000000000000
 81     1.73873270585731     1.73873270585731     1.73873270585731
