CRYSTAL
PRIMVEC
 3.19202714785243 0.00000000000000 0.00000000000000
 0.00000000000000 3.19202714785243 0.00000000000000
 0.00000000000000 0.00000000000000 3.19202714785243
PRIMCOORD
 1 1
 81     0.00000000000000     0.00000000000000     0.00000000000000
