CRYSTAL
PRIMVEC
 -1.49166683817833 1.49166683817833 1.49166683817833
 1.49166683817833 -1.49166683817833 1.49166683817833
 1.49166683817833 1.49166683817833 -1.49166683817833
PRIMCOORD
 1 1
 23     0.00000000000000     0.00000000000000     0.00000000000000
