CRYSTAL
PRIMVEC
 0.00000000000000 1.90083730680648 1.90083730680648
 1.90083730680648 0.00000000000000 1.90083730680648
 1.90083730680648 1.90083730680648 0.00000000000000
PRIMCOORD
 1 1
 23     0.00000000000000     0.00000000000000     0.00000000000000
