CRYSTAL
PRIMVEC
 2.43239893887054 0.00000000000000 0.00000000000000
 0.00000000000000 2.43239893887054 0.00000000000000
 0.00000000000000 0.00000000000000 2.43239893887054
PRIMCOORD
 1 1
 23     0.00000000000000     0.00000000000000     0.00000000000000
