CRYSTAL
PRIMVEC
 -1.58483461258356 1.58483461258356 1.58483461258356
 1.58483461258356 -1.58483461258356 1.58483461258356
 1.58483461258356 1.58483461258356 -1.58483461258356
PRIMCOORD
 1 1
 74     0.00000000000000     0.00000000000000     0.00000000000000
