CRYSTAL
PRIMVEC
 0.00000000000000 2.89576021156275 2.89576021156275
 2.89576021156275 0.00000000000000 2.89576021156275
 2.89576021156275 2.89576021156275 0.00000000000000
PRIMCOORD
 2 1
 74     0.00000000000000     0.00000000000000     0.00000000000000
 74     1.44788010578138     1.44788010578138     1.44788010578138
