CRYSTAL
PRIMVEC
 2.62433306867734 0.00000000000000 0.00000000000000
 0.00000000000000 2.62433306867734 0.00000000000000
 0.00000000000000 0.00000000000000 2.62433306867734
PRIMCOORD
 1 1
 74     0.00000000000000     0.00000000000000     0.00000000000000
