CRYSTAL
PRIMVEC
 -2.03401252147832 2.03401252147832 2.03401252147832
 2.03401252147832 -2.03401252147832 2.03401252147832
 2.03401252147832 2.03401252147832 -2.03401252147832
PRIMCOORD
 1 1
 39     0.00000000000000     0.00000000000000     0.00000000000000
