CRYSTAL
PRIMVEC
 0.00000000000000 2.55197664164798 2.55197664164798
 2.55197664164798 0.00000000000000 2.55197664164798
 2.55197664164798 2.55197664164798 0.00000000000000
PRIMCOORD
 1 1
 39     0.00000000000000     0.00000000000000     0.00000000000000
