CRYSTAL
PRIMVEC
 3.25878481925295 0.00000000000000 0.00000000000000
 0.00000000000000 3.25878481925295 0.00000000000000
 0.00000000000000 0.00000000000000 3.25878481925295
PRIMCOORD
 1 1
 39     0.00000000000000     0.00000000000000     0.00000000000000
