CRYSTAL
PRIMVEC
 -1.53427342996727 1.53427342996727 1.53427342996727
 1.53427342996727 -1.53427342996727 1.53427342996727
 1.53427342996727 1.53427342996727 -1.53427342996727
PRIMCOORD
 1 1
 30     0.00000000000000     0.00000000000000     0.00000000000000
