CRYSTAL
PRIMVEC
 0.00000000000000 2.84568988558392 2.84568988558392
 2.84568988558392 0.00000000000000 2.84568988558392
 2.84568988558392 2.84568988558392 0.00000000000000
PRIMCOORD
 2 1
 30     0.00000000000000     0.00000000000000     0.00000000000000
 30     1.42284494279196     1.42284494279196     1.42284494279196
