CRYSTAL
PRIMVEC
 2.58545949413584 0.00000000000000 0.00000000000000
 0.00000000000000 2.58545949413584 0.00000000000000
 0.00000000000000 0.00000000000000 2.58545949413584
PRIMCOORD
 1 1
 30     0.00000000000000     0.00000000000000     0.00000000000000
