CRYSTAL
PRIMVEC
 0.00000000000000 2.26849885046239 2.26849885046239
 2.26849885046239 0.00000000000000 2.26849885046239
 2.26849885046239 2.26849885046239 0.00000000000000
PRIMCOORD
 1 1
 40     0.00000000000000     0.00000000000000     0.00000000000000
