CRYSTAL
PRIMVEC
 -1.63645147061636 1.63645147061636 1.63645147061636
 1.63645147061636 -1.63645147061636 1.63645147061636
 1.63645147061636 1.63645147061636 -1.63645147061636
PRIMCOORD
 1 1
 97     0.00000000000000     0.00000000000000     0.00000000000000
