CRYSTAL
PRIMVEC
 -1.63645142544149 1.63645142544149 1.63645142544149
 1.63645142544149 -1.63645142544149 1.63645142544149
 1.63645142544149 1.63645142544149 -1.63645142544149
PRIMCOORD
 1 1
 97     0.00000000000000     0.00000000000000     0.00000000000000
