CRYSTAL
PRIMVEC
 0.00000000000000 2.71105553806817 2.71105553806817
 2.71105553806817 0.00000000000000 2.71105553806817
 2.71105553806817 2.71105553806817 0.00000000000000
PRIMCOORD
 2 1
 97     0.00000000000000     0.00000000000000     0.00000000000000
 97     1.35552776903408     1.35552776903408     1.35552776903408
