CRYSTAL
PRIMVEC
 0.00000000000000 2.09260595639738 2.09260595639738
 2.09260595639738 0.00000000000000 2.09260595639738
 2.09260595639738 2.09260595639738 0.00000000000000
PRIMCOORD
 1 1
 97     0.00000000000000     0.00000000000000     0.00000000000000
