CRYSTAL
PRIMVEC
 2.58630970824766 0.00000000000000 0.00000000000000
 0.00000000000000 2.58630970824766 0.00000000000000
 0.00000000000000 0.00000000000000 2.58630970824766
PRIMCOORD
 1 1
 97     0.00000000000000     0.00000000000000     0.00000000000000
