CRYSTAL
PRIMVEC
 -1.69827394649816 1.69827394649816 1.69827394649816
 1.69827394649816 -1.69827394649816 1.69827394649816
 1.69827394649816 1.69827394649816 -1.69827394649816
PRIMCOORD
 1 1
 98     0.00000000000000     0.00000000000000     0.00000000000000
