CRYSTAL
PRIMVEC
 0.00000000000000 2.16020004828653 2.16020004828653
 2.16020004828653 0.00000000000000 2.16020004828653
 2.16020004828653 2.16020004828653 0.00000000000000
PRIMCOORD
 1 1
 98     0.00000000000000     0.00000000000000     0.00000000000000
