CRYSTAL
PRIMVEC
 2.67050108144199 0.00000000000000 0.00000000000000
 0.00000000000000 2.67050108144199 0.00000000000000
 0.00000000000000 0.00000000000000 2.67050108144199
PRIMCOORD
 1 1
 98     0.00000000000000     0.00000000000000     0.00000000000000
