CRYSTAL
PRIMVEC
 2.67050111548258 0.00000000000000 0.00000000000000
 0.00000000000000 2.67050111548258 0.00000000000000
 0.00000000000000 0.00000000000000 2.67050111548258
PRIMCOORD
 1 1
 98     0.00000000000000     0.00000000000000     0.00000000000000
