CRYSTAL
PRIMVEC
 -1.80158329784603 1.80158329784603 1.80158329784603
 1.80158329784603 -1.80158329784603 1.80158329784603
 1.80158329784603 1.80158329784603 -1.80158329784603
PRIMCOORD
 1 1
 99     0.00000000000000     0.00000000000000     0.00000000000000
