CRYSTAL
PRIMVEC
 -1.80158260741753 1.80158260741753 1.80158260741753
 1.80158260741753 -1.80158260741753 1.80158260741753
 1.80158260741753 1.80158260741753 -1.80158260741753
PRIMCOORD
 1 1
 99     0.00000000000000     0.00000000000000     0.00000000000000
