CRYSTAL
PRIMVEC
 2.82033681365016 0.00000000000000 0.00000000000000
 0.00000000000000 2.82033681365016 0.00000000000000
 0.00000000000000 0.00000000000000 2.82033681365016
PRIMCOORD
 1 1
 99     0.00000000000000     0.00000000000000     0.00000000000000
