CRYSTAL
PRIMVEC
 2.82033720139653 0.00000000000000 0.00000000000000
 0.00000000000000 2.82033720139653 0.00000000000000
 0.00000000000000 0.00000000000000 2.82033720139653
PRIMCOORD
 1 1
 99     0.00000000000000     0.00000000000000     0.00000000000000
