CRYSTAL
PRIMVEC
 -1.94369634910422 1.94369634910422 1.94369634910422
 1.94369634910422 -1.94369634910422 1.94369634910422
 1.94369634910422 1.94369634910422 -1.94369634910422
PRIMCOORD
 1 1
 100     0.00000000000000     0.00000000000000     0.00000000000000
