CRYSTAL
PRIMVEC
 -1.94369802719622 1.94369802719622 1.94369802719622
 1.94369802719622 -1.94369802719622 1.94369802719622
 1.94369802719622 1.94369802719622 -1.94369802719622
PRIMCOORD
 1 1
 100     0.00000000000000     0.00000000000000     0.00000000000000
