CRYSTAL
PRIMVEC
 3.12356225765568 0.00000000000000 0.00000000000000
 0.00000000000000 3.12356225765568 0.00000000000000
 0.00000000000000 0.00000000000000 3.12356225765568
PRIMCOORD
 1 1
 100     0.00000000000000     0.00000000000000     0.00000000000000
