CRYSTAL
PRIMVEC
 -1.97592092944981 1.97592092944981 1.97592092944981
 1.97592092944981 -1.97592092944981 1.97592092944981
 1.97592092944981 1.97592092944981 -1.97592092944981
PRIMCOORD
 1 1
 103     0.00000000000000     0.00000000000000     0.00000000000000
