CRYSTAL
PRIMVEC
 0.00000000000000 2.46601508056796 2.46601508056796
 2.46601508056796 0.00000000000000 2.46601508056796
 2.46601508056796 2.46601508056796 0.00000000000000
PRIMCOORD
 1 1
 103     0.00000000000000     0.00000000000000     0.00000000000000
