CRYSTAL
PRIMVEC
 3.28256578488169 0.00000000000000 0.00000000000000
 0.00000000000000 3.28256578488169 0.00000000000000
 0.00000000000000 0.00000000000000 3.28256578488169
PRIMCOORD
 1 1
 103     0.00000000000000     0.00000000000000     0.00000000000000
