CRYSTAL
PRIMVEC
 -2.08573052403593 2.08573052403593 2.08573052403593
 2.08573052403593 -2.08573052403593 2.08573052403593
 2.08573052403593 2.08573052403593 -2.08573052403593
PRIMCOORD
 1 1
 101     0.00000000000000     0.00000000000000     0.00000000000000
