CRYSTAL
PRIMVEC
 -2.08572951702469 2.08572951702469 2.08572951702469
 2.08572951702469 -2.08572951702469 2.08572951702469
 2.08572951702469 2.08572951702469 -2.08572951702469
PRIMCOORD
 1 1
 101     0.00000000000000     0.00000000000000     0.00000000000000
