CRYSTAL
PRIMVEC
 0.00000000000000 2.60966608773198 2.60966608773198
 2.60966608773198 0.00000000000000 2.60966608773198
 2.60966608773198 2.60966608773198 0.00000000000000
PRIMCOORD
 1 1
 101     0.00000000000000     0.00000000000000     0.00000000000000
