CRYSTAL
PRIMVEC
 3.50369867717760 0.00000000000000 0.00000000000000
 0.00000000000000 3.50369867717760 0.00000000000000
 0.00000000000000 0.00000000000000 3.50369867717760
PRIMCOORD
 1 1
 101     0.00000000000000     0.00000000000000     0.00000000000000
