CRYSTAL
PRIMVEC
 -2.14163121284001 2.14163121284001 2.14163121284001
 2.14163121284001 -2.14163121284001 2.14163121284001
 2.14163121284001 2.14163121284001 -2.14163121284001
PRIMCOORD
 1 1
 102     0.00000000000000     0.00000000000000     0.00000000000000
