CRYSTAL
PRIMVEC
 0.00000000000000 2.71270351777242 2.71270351777242
 2.71270351777242 0.00000000000000 2.71270351777242
 2.71270351777242 2.71270351777242 0.00000000000000
PRIMCOORD
 1 1
 102     0.00000000000000     0.00000000000000     0.00000000000000
