CRYSTAL
PRIMVEC
 3.63822504704866 0.00000000000000 0.00000000000000
 0.00000000000000 3.63822504704866 0.00000000000000
 0.00000000000000 0.00000000000000 3.63822504704866
PRIMCOORD
 1 1
 102     0.00000000000000     0.00000000000000     0.00000000000000
