CRYSTAL
PRIMVEC
 3.63822345427721 0.00000000000000 0.00000000000000
 0.00000000000000 3.63822345427721 0.00000000000000
 0.00000000000000 0.00000000000000 3.63822345427721
PRIMCOORD
 1 1
 102     0.00000000000000     0.00000000000000     0.00000000000000
