CRYSTAL
PRIMVEC
 -2.20449786664523 2.20449786664523 2.20449786664523
 2.20449786664523 -2.20449786664523 2.20449786664523
 2.20449786664523 2.20449786664523 -2.20449786664523
PRIMCOORD
 1 1
 89     0.00000000000000     0.00000000000000     0.00000000000000
