CRYSTAL
PRIMVEC
 -2.20449779037020 2.20449779037020 2.20449779037020
 2.20449779037020 -2.20449779037020 2.20449779037020
 2.20449779037020 2.20449779037020 -2.20449779037020
PRIMCOORD
 1 1
 89     0.00000000000000     0.00000000000000     0.00000000000000
