CRYSTAL
PRIMVEC
 3.58454692355335 0.00000000000000 0.00000000000000
 0.00000000000000 3.58454692355335 0.00000000000000
 0.00000000000000 0.00000000000000 3.58454692355335
PRIMCOORD
 1 1
 89     0.00000000000000     0.00000000000000     0.00000000000000
