CRYSTAL
PRIMVEC
 3.58454650767954 0.00000000000000 0.00000000000000
 0.00000000000000 3.58454650767954 0.00000000000000
 0.00000000000000 0.00000000000000 3.58454650767954
PRIMCOORD
 1 1
 89     0.00000000000000     0.00000000000000     0.00000000000000
