CRYSTAL
PRIMVEC
 -1.61220719257461 1.61220719257461 1.61220719257461
 1.61220719257461 -1.61220719257461 1.61220719257461
 1.61220719257461 1.61220719257461 -1.61220719257461
PRIMCOORD
 1 1
 47     0.00000000000000     0.00000000000000     0.00000000000000
