CRYSTAL
PRIMVEC
 -1.61220720143514 1.61220720143514 1.61220720143514
 1.61220720143514 -1.61220720143514 1.61220720143514
 1.61220720143514 1.61220720143514 -1.61220720143514
PRIMCOORD
 1 1
 47     0.00000000000000     0.00000000000000     0.00000000000000
