CRYSTAL
PRIMVEC
 0.00000000000000 2.02687876133283 2.02687876133283
 2.02687876133283 0.00000000000000 2.02687876133283
 2.02687876133283 2.02687876133283 0.00000000000000
PRIMCOORD
 1 1
 47     0.00000000000000     0.00000000000000     0.00000000000000
