CRYSTAL
PRIMVEC
 2.68493889654710 0.00000000000000 0.00000000000000
 0.00000000000000 2.68493889654710 0.00000000000000
 0.00000000000000 0.00000000000000 2.68493889654710
PRIMCOORD
 1 1
 47     0.00000000000000     0.00000000000000     0.00000000000000
