CRYSTAL
PRIMVEC
 2.68493890374848 0.00000000000000 0.00000000000000
 0.00000000000000 2.68493890374848 0.00000000000000
 0.00000000000000 0.00000000000000 2.68493890374848
PRIMCOORD
 1 1
 47     0.00000000000000     0.00000000000000     0.00000000000000
