CRYSTAL
PRIMVEC
 -1.60615014727164 1.60615014727164 1.60615014727164
 1.60615014727164 -1.60615014727164 1.60615014727164
 1.60615014727164 1.60615014727164 -1.60615014727164
PRIMCOORD
 1 1
 13     0.00000000000000     0.00000000000000     0.00000000000000
