CRYSTAL
PRIMVEC
 -1.60615015389407 1.60615015389407 1.60615015389407
 1.60615015389407 -1.60615015389407 1.60615015389407
 1.60615015389407 1.60615015389407 -1.60615015389407
PRIMCOORD
 1 1
 13     0.00000000000000     0.00000000000000     0.00000000000000
