CRYSTAL
PRIMVEC
 0.00000000000000 2.00755785284099 2.00755785284099
 2.00755785284099 0.00000000000000 2.00755785284099
 2.00755785284099 2.00755785284099 0.00000000000000
PRIMCOORD
 1 1
 13     0.00000000000000     0.00000000000000     0.00000000000000
