CRYSTAL
PRIMVEC
 2.70097646237390 0.00000000000000 0.00000000000000
 0.00000000000000 2.70097646237390 0.00000000000000
 0.00000000000000 0.00000000000000 2.70097646237390
PRIMCOORD
 1 1
 13     0.00000000000000     0.00000000000000     0.00000000000000
