CRYSTAL
PRIMVEC
 2.70097645899441 0.00000000000000 0.00000000000000
 0.00000000000000 2.70097645899441 0.00000000000000
 0.00000000000000 0.00000000000000 2.70097645899441
PRIMCOORD
 1 1
 13     0.00000000000000     0.00000000000000     0.00000000000000
