CRYSTAL
PRIMVEC
 -1.56475477515262 1.56475477515262 1.56475477515262
 1.56475477515262 -1.56475477515262 1.56475477515262
 1.56475477515262 1.56475477515262 -1.56475477515262
PRIMCOORD
 1 1
 95     0.00000000000000     0.00000000000000     0.00000000000000
