CRYSTAL
PRIMVEC
 -1.56475477227056 1.56475477227056 1.56475477227056
 1.56475477227056 -1.56475477227056 1.56475477227056
 1.56475477227056 1.56475477227056 -1.56475477227056
PRIMCOORD
 1 1
 95     0.00000000000000     0.00000000000000     0.00000000000000
