CRYSTAL
PRIMVEC
 0.00000000000000 2.01162526204709 2.01162526204709
 2.01162526204709 0.00000000000000 2.01162526204709
 2.01162526204709 2.01162526204709 0.00000000000000
PRIMCOORD
 1 1
 95     0.00000000000000     0.00000000000000     0.00000000000000
