CRYSTAL
PRIMVEC
 2.48221423105918 0.00000000000000 0.00000000000000
 0.00000000000000 2.48221423105918 0.00000000000000
 0.00000000000000 0.00000000000000 2.48221423105918
PRIMCOORD
 1 1
 95     0.00000000000000     0.00000000000000     0.00000000000000
