CRYSTAL
PRIMVEC
 2.48221423905729 0.00000000000000 0.00000000000000
 0.00000000000000 2.48221423905729 0.00000000000000
 0.00000000000000 0.00000000000000 2.48221423905729
PRIMCOORD
 1 1
 95     0.00000000000000     0.00000000000000     0.00000000000000
