CRYSTAL
PRIMVEC
 -2.34677540331113 2.34677540331113 2.34677540331113
 2.34677540331113 -2.34677540331113 2.34677540331113
 2.34677540331113 2.34677540331113 -2.34677540331113
PRIMCOORD
 1 1
 18     0.00000000000000     0.00000000000000     0.00000000000000
