CRYSTAL
PRIMVEC
 -2.34677541159458 2.34677541159458 2.34677541159458
 2.34677541159458 -2.34677541159458 2.34677541159458
 2.34677541159458 2.34677541159458 -2.34677541159458
PRIMCOORD
 1 1
 18     0.00000000000000     0.00000000000000     0.00000000000000
