CRYSTAL
PRIMVEC
 0.00000000000000 2.92823394868849 2.92823394868849
 2.92823394868849 0.00000000000000 2.92823394868849
 2.92823394868849 2.92823394868849 0.00000000000000
PRIMCOORD
 1 1
 18     0.00000000000000     0.00000000000000     0.00000000000000
