CRYSTAL
PRIMVEC
 4.00432787383466 0.00000000000000 0.00000000000000
 0.00000000000000 4.00432787383466 0.00000000000000
 0.00000000000000 0.00000000000000 4.00432787383466
PRIMCOORD
 1 1
 18     0.00000000000000     0.00000000000000     0.00000000000000
