CRYSTAL
PRIMVEC
 -1.65612127243225 1.65612127243225 1.65612127243225
 1.65612127243225 -1.65612127243225 1.65612127243225
 1.65612127243225 1.65612127243225 -1.65612127243225
PRIMCOORD
 1 1
 33     0.00000000000000     0.00000000000000     0.00000000000000
