CRYSTAL
PRIMVEC
 -1.65612127418359 1.65612127418359 1.65612127418359
 1.65612127418359 -1.65612127418359 1.65612127418359
 1.65612127418359 1.65612127418359 -1.65612127418359
PRIMCOORD
 1 1
 33     0.00000000000000     0.00000000000000     0.00000000000000
