CRYSTAL
PRIMVEC
 2.69054845566031 0.00000000000000 0.00000000000000
 0.00000000000000 2.69054845566031 0.00000000000000
 0.00000000000000 0.00000000000000 2.69054845566031
PRIMCOORD
 1 1
 33     0.00000000000000     0.00000000000000     0.00000000000000
