CRYSTAL
PRIMVEC
 2.69054859218303 0.00000000000000 0.00000000000000
 0.00000000000000 2.69054859218303 0.00000000000000
 0.00000000000000 0.00000000000000 2.69054859218303
PRIMCOORD
 1 1
 33     0.00000000000000     0.00000000000000     0.00000000000000
