CRYSTAL
PRIMVEC
 -2.09379456376231 2.09379456376231 2.09379456376231
 2.09379456376231 -2.09379456376231 2.09379456376231
 2.09379456376231 2.09379456376231 -2.09379456376231
PRIMCOORD
 1 1
 85     0.00000000000000     0.00000000000000     0.00000000000000
