CRYSTAL
PRIMVEC
 -2.09379455196271 2.09379455196271 2.09379455196271
 2.09379455196271 -2.09379455196271 2.09379455196271
 2.09379455196271 2.09379455196271 -2.09379455196271
PRIMCOORD
 1 1
 85     0.00000000000000     0.00000000000000     0.00000000000000
