CRYSTAL
PRIMVEC
 0.00000000000000 2.61542034073022 2.61542034073022
 2.61542034073022 0.00000000000000 2.61542034073022
 2.61542034073022 2.61542034073022 0.00000000000000
PRIMCOORD
 1 1
 85     0.00000000000000     0.00000000000000     0.00000000000000
