CRYSTAL
PRIMVEC
 3.50351503065393 0.00000000000000 0.00000000000000
 0.00000000000000 3.50351503065393 0.00000000000000
 0.00000000000000 0.00000000000000 3.50351503065393
PRIMCOORD
 1 1
 85     0.00000000000000     0.00000000000000     0.00000000000000
