CRYSTAL
PRIMVEC
 3.50351504711131 0.00000000000000 0.00000000000000
 0.00000000000000 3.50351504711131 0.00000000000000
 0.00000000000000 0.00000000000000 3.50351504711131
PRIMCOORD
 1 1
 85     0.00000000000000     0.00000000000000     0.00000000000000
