CRYSTAL
PRIMVEC
 -1.62195990766630 1.62195990766630 1.62195990766630
 1.62195990766630 -1.62195990766630 1.62195990766630
 1.62195990766630 1.62195990766630 -1.62195990766630
PRIMCOORD
 1 1
 79     0.00000000000000     0.00000000000000     0.00000000000000
