CRYSTAL
PRIMVEC
 -1.62195990623475 1.62195990623475 1.62195990623475
 1.62195990623475 -1.62195990623475 1.62195990623475
 1.62195990623475 1.62195990623475 -1.62195990623475
PRIMCOORD
 1 1
 79     0.00000000000000     0.00000000000000     0.00000000000000
