CRYSTAL
PRIMVEC
 0.00000000000000 2.04175378220094 2.04175378220094
 2.04175378220094 0.00000000000000 2.04175378220094
 2.04175378220094 2.04175378220094 0.00000000000000
PRIMCOORD
 1 1
 79     0.00000000000000     0.00000000000000     0.00000000000000
