CRYSTAL
PRIMVEC
 2.69518054809299 0.00000000000000 0.00000000000000
 0.00000000000000 2.69518054809299 0.00000000000000
 0.00000000000000 0.00000000000000 2.69518054809299
PRIMCOORD
 1 1
 79     0.00000000000000     0.00000000000000     0.00000000000000
