CRYSTAL
PRIMVEC
 -1.14858755702661 1.14858755702661 1.14858755702661
 1.14858755702661 -1.14858755702661 1.14858755702661
 1.14858755702661 1.14858755702661 -1.14858755702661
PRIMCOORD
 1 1
  5     0.00000000000000     0.00000000000000     0.00000000000000
