CRYSTAL
PRIMVEC
 -1.14858757620719 1.14858757620719 1.14858757620719
 1.14858757620719 -1.14858757620719 1.14858757620719
 1.14858757620719 1.14858757620719 -1.14858757620719
PRIMCOORD
 1 1
  5     0.00000000000000     0.00000000000000     0.00000000000000
