CRYSTAL
PRIMVEC
 0.00000000000000 1.42822950078750 1.42822950078750
 1.42822950078750 0.00000000000000 1.42822950078750
 1.42822950078750 1.42822950078750 0.00000000000000
PRIMCOORD
 1 1
  5     0.00000000000000     0.00000000000000     0.00000000000000
