CRYSTAL
PRIMVEC
 1.87734647959731 0.00000000000000 0.00000000000000
 0.00000000000000 1.87734647959731 0.00000000000000
 0.00000000000000 0.00000000000000 1.87734647959731
PRIMCOORD
 1 1
  5     0.00000000000000     0.00000000000000     0.00000000000000
