CRYSTAL
PRIMVEC
 -2.44057258872107 2.44057258872107 2.44057258872107
 2.44057258872107 -2.44057258872107 2.44057258872107
 2.44057258872107 2.44057258872107 -2.44057258872107
PRIMCOORD
 1 1
 56     0.00000000000000     0.00000000000000     0.00000000000000
