CRYSTAL
PRIMVEC
 -2.44057259885029 2.44057259885029 2.44057259885029
 2.44057259885029 -2.44057259885029 2.44057259885029
 2.44057259885029 2.44057259885029 -2.44057259885029
PRIMCOORD
 1 1
 56     0.00000000000000     0.00000000000000     0.00000000000000
