CRYSTAL
PRIMVEC
 0.00000000000000 3.08070588067067 3.08070588067067
 3.08070588067067 0.00000000000000 3.08070588067067
 3.08070588067067 3.08070588067067 0.00000000000000
PRIMCOORD
 1 1
 56     0.00000000000000     0.00000000000000     0.00000000000000
