CRYSTAL
PRIMVEC
 0.00000000000000 3.08070586938149 3.08070586938149
 3.08070586938149 0.00000000000000 3.08070586938149
 3.08070586938149 3.08070586938149 0.00000000000000
PRIMCOORD
 1 1
 56     0.00000000000000     0.00000000000000     0.00000000000000
