CRYSTAL
PRIMVEC
 3.81616265218422 0.00000000000000 0.00000000000000
 0.00000000000000 3.81616265218422 0.00000000000000
 0.00000000000000 0.00000000000000 3.81616265218422
PRIMCOORD
 1 1
 56     0.00000000000000     0.00000000000000     0.00000000000000
