CRYSTAL
PRIMVEC
 -1.24613894114948 1.24613894114948 1.24613894114948
 1.24613894114948 -1.24613894114948 1.24613894114948
 1.24613894114948 1.24613894114948 -1.24613894114948
PRIMCOORD
 1 1
  4     0.00000000000000     0.00000000000000     0.00000000000000
