CRYSTAL
PRIMVEC
 -1.24613893892137 1.24613893892137 1.24613893892137
 1.24613893892137 -1.24613893892137 1.24613893892137
 1.24613893892137 1.24613893892137 -1.24613893892137
PRIMCOORD
 1 1
  4     0.00000000000000     0.00000000000000     0.00000000000000
