CRYSTAL
PRIMVEC
 0.00000000000000 1.57337190411760 1.57337190411760
 1.57337190411760 0.00000000000000 1.57337190411760
 1.57337190411760 1.57337190411760 0.00000000000000
PRIMCOORD
 1 1
  4     0.00000000000000     0.00000000000000     0.00000000000000
