CRYSTAL
PRIMVEC
 2.16614728403229 0.00000000000000 0.00000000000000
 0.00000000000000 2.16614728403229 0.00000000000000
 0.00000000000000 0.00000000000000 2.16614728403229
PRIMCOORD
 1 1
  4     0.00000000000000     0.00000000000000     0.00000000000000
