CRYSTAL
PRIMVEC
 2.16614731025666 0.00000000000000 0.00000000000000
 0.00000000000000 2.16614731025666 0.00000000000000
 0.00000000000000 0.00000000000000 2.16614731025666
PRIMCOORD
 1 1
  4     0.00000000000000     0.00000000000000     0.00000000000000
