CRYSTAL
PRIMVEC
 -1.95859021413898 1.95859021413898 1.95859021413898
 1.95859021413898 -1.95859021413898 1.95859021413898
 1.95859021413898 1.95859021413898 -1.95859021413898
PRIMCOORD
 1 1
 83     0.00000000000000     0.00000000000000     0.00000000000000
