CRYSTAL
PRIMVEC
 -1.95859024901261 1.95859024901261 1.95859024901261
 1.95859024901261 -1.95859024901261 1.95859024901261
 1.95859024901261 1.95859024901261 -1.95859024901261
PRIMCOORD
 1 1
 83     0.00000000000000     0.00000000000000     0.00000000000000
