CRYSTAL
PRIMVEC
 0.00000000000000 2.47192041207618 2.47192041207618
 2.47192041207618 0.00000000000000 2.47192041207618
 2.47192041207618 2.47192041207618 0.00000000000000
PRIMCOORD
 1 1
 83     0.00000000000000     0.00000000000000     0.00000000000000
