CRYSTAL
PRIMVEC
 3.22284026832583 0.00000000000000 0.00000000000000
 0.00000000000000 3.22284026832583 0.00000000000000
 0.00000000000000 0.00000000000000 3.22284026832583
PRIMCOORD
 1 1
 83     0.00000000000000     0.00000000000000     0.00000000000000
