CRYSTAL
PRIMVEC
 -1.58746514686219 1.58746514686219 1.58746514686219
 1.58746514686219 -1.58746514686219 1.58746514686219
 1.58746514686219 1.58746514686219 -1.58746514686219
PRIMCOORD
 1 1
 97     0.00000000000000     0.00000000000000     0.00000000000000
