CRYSTAL
PRIMVEC
 -1.58746515668981 1.58746515668981 1.58746515668981
 1.58746515668981 -1.58746515668981 1.58746515668981
 1.58746515668981 1.58746515668981 -1.58746515668981
PRIMCOORD
 1 1
 97     0.00000000000000     0.00000000000000     0.00000000000000
