CRYSTAL
PRIMVEC
 0.00000000000000 2.03026292387565 2.03026292387565
 2.03026292387565 0.00000000000000 2.03026292387565
 2.03026292387565 2.03026292387565 0.00000000000000
PRIMCOORD
 1 1
 97     0.00000000000000     0.00000000000000     0.00000000000000
