CRYSTAL
PRIMVEC
 2.52015646146558 0.00000000000000 0.00000000000000
 0.00000000000000 2.52015646146558 0.00000000000000
 0.00000000000000 0.00000000000000 2.52015646146558
PRIMCOORD
 1 1
 97     0.00000000000000     0.00000000000000     0.00000000000000
