CRYSTAL
PRIMVEC
 2.52015645990133 0.00000000000000 0.00000000000000
 0.00000000000000 2.52015645990133 0.00000000000000
 0.00000000000000 0.00000000000000 2.52015645990133
PRIMCOORD
 1 1
 97     0.00000000000000     0.00000000000000     0.00000000000000
