CRYSTAL
PRIMVEC
 -1.82289019563887 1.82289019563887 1.82289019563887
 1.82289019563887 -1.82289019563887 1.82289019563887
 1.82289019563887 1.82289019563887 -1.82289019563887
PRIMCOORD
 1 1
 35     0.00000000000000     0.00000000000000     0.00000000000000
