CRYSTAL
PRIMVEC
 -1.82289019522646 1.82289019522646 1.82289019522646
 1.82289019522646 -1.82289019522646 1.82289019522646
 1.82289019522646 1.82289019522646 -1.82289019522646
PRIMCOORD
 1 1
 35     0.00000000000000     0.00000000000000     0.00000000000000
