CRYSTAL
PRIMVEC
 0.00000000000000 2.28322675706989 2.28322675706989
 2.28322675706989 0.00000000000000 2.28322675706989
 2.28322675706989 2.28322675706989 0.00000000000000
PRIMCOORD
 1 1
 35     0.00000000000000     0.00000000000000     0.00000000000000
