CRYSTAL
PRIMVEC
 3.02102778984837 0.00000000000000 0.00000000000000
 0.00000000000000 3.02102778984837 0.00000000000000
 0.00000000000000 0.00000000000000 3.02102778984837
PRIMCOORD
 1 1
 35     0.00000000000000     0.00000000000000     0.00000000000000
