CRYSTAL
PRIMVEC
 3.02102777900281 0.00000000000000 0.00000000000000
 0.00000000000000 3.02102777900281 0.00000000000000
 0.00000000000000 0.00000000000000 3.02102777900281
PRIMCOORD
 1 1
 35     0.00000000000000     0.00000000000000     0.00000000000000
