CRYSTAL
PRIMVEC
 -1.17131993346742 1.17131993346742 1.17131993346742
 1.17131993346742 -1.17131993346742 1.17131993346742
 1.17131993346742 1.17131993346742 -1.17131993346742
PRIMCOORD
 1 1
  6     0.00000000000000     0.00000000000000     0.00000000000000
