CRYSTAL
PRIMVEC
 -1.17131992337269 1.17131992337269 1.17131992337269
 1.17131992337269 -1.17131992337269 1.17131992337269
 1.17131992337269 1.17131992337269 -1.17131992337269
PRIMCOORD
 1 1
  6     0.00000000000000     0.00000000000000     0.00000000000000
