CRYSTAL
PRIMVEC
 0.00000000000000 1.51748132387549 1.51748132387549
 1.51748132387549 0.00000000000000 1.51748132387549
 1.51748132387549 1.51748132387549 0.00000000000000
PRIMCOORD
 1 1
  6     0.00000000000000     0.00000000000000     0.00000000000000
