CRYSTAL
PRIMVEC
 0.00000000000000 1.51748134692132 1.51748134692132
 1.51748134692132 0.00000000000000 1.51748134692132
 1.51748134692132 1.51748134692132 0.00000000000000
PRIMCOORD
 1 1
  6     0.00000000000000     0.00000000000000     0.00000000000000
