CRYSTAL
PRIMVEC
 1.76061976929939 0.00000000000000 0.00000000000000
 0.00000000000000 1.76061976929939 0.00000000000000
 0.00000000000000 0.00000000000000 1.76061976929939
PRIMCOORD
 1 1
  6     0.00000000000000     0.00000000000000     0.00000000000000
