CRYSTAL
PRIMVEC
 1.76061973403703 0.00000000000000 0.00000000000000
 0.00000000000000 1.76061973403703 0.00000000000000
 0.00000000000000 0.00000000000000 1.76061973403703
PRIMCOORD
 1 1
  6     0.00000000000000     0.00000000000000     0.00000000000000
