CRYSTAL
PRIMVEC
 -2.16194289843460 2.16194289843460 2.16194289843460
 2.16194289843460 -2.16194289843460 2.16194289843460
 2.16194289843460 2.16194289843460 -2.16194289843460
PRIMCOORD
 1 1
 20     0.00000000000000     0.00000000000000     0.00000000000000
