CRYSTAL
PRIMVEC
 -2.16194290046020 2.16194290046020 2.16194290046020
 2.16194290046020 -2.16194290046020 2.16194290046020
 2.16194290046020 2.16194290046020 -2.16194290046020
PRIMCOORD
 1 1
 20     0.00000000000000     0.00000000000000     0.00000000000000
