CRYSTAL
PRIMVEC
 0.00000000000000 2.72759562447418 2.72759562447418
 2.72759562447418 0.00000000000000 2.72759562447418
 2.72759562447418 2.72759562447418 0.00000000000000
PRIMCOORD
 1 1
 20     0.00000000000000     0.00000000000000     0.00000000000000
