CRYSTAL
PRIMVEC
 0.00000000000000 2.72759562646894 2.72759562646894
 2.72759562646894 0.00000000000000 2.72759562646894
 2.72759562646894 2.72759562646894 0.00000000000000
PRIMCOORD
 1 1
 20     0.00000000000000     0.00000000000000     0.00000000000000
