CRYSTAL
PRIMVEC
 3.45739373446386 0.00000000000000 0.00000000000000
 0.00000000000000 3.45739373446386 0.00000000000000
 0.00000000000000 0.00000000000000 3.45739373446386
PRIMCOORD
 1 1
 20     0.00000000000000     0.00000000000000     0.00000000000000
