CRYSTAL
PRIMVEC
 3.45739379194381 0.00000000000000 0.00000000000000
 0.00000000000000 3.45739379194381 0.00000000000000
 0.00000000000000 0.00000000000000 3.45739379194381
PRIMCOORD
 1 1
 20     0.00000000000000     0.00000000000000     0.00000000000000
