CRYSTAL
PRIMVEC
 -1.74721650241598 1.74721650241598 1.74721650241598
 1.74721650241598 -1.74721650241598 1.74721650241598
 1.74721650241598 1.74721650241598 -1.74721650241598
PRIMCOORD
 1 1
 48     0.00000000000000     0.00000000000000     0.00000000000000
