CRYSTAL
PRIMVEC
 -1.74721650230558 1.74721650230558 1.74721650230558
 1.74721650230558 -1.74721650230558 1.74721650230558
 1.74721650230558 1.74721650230558 -1.74721650230558
PRIMCOORD
 1 1
 48     0.00000000000000     0.00000000000000     0.00000000000000
