CRYSTAL
PRIMVEC
 0.00000000000000 2.18806384894510 2.18806384894510
 2.18806384894510 0.00000000000000 2.18806384894510
 2.18806384894510 2.18806384894510 0.00000000000000
PRIMCOORD
 1 1
 48     0.00000000000000     0.00000000000000     0.00000000000000
