CRYSTAL
PRIMVEC
 2.90619154035982 0.00000000000000 0.00000000000000
 0.00000000000000 2.90619154035982 0.00000000000000
 0.00000000000000 0.00000000000000 2.90619154035982
PRIMCOORD
 1 1
 48     0.00000000000000     0.00000000000000     0.00000000000000
