CRYSTAL
PRIMVEC
 2.90619155839690 0.00000000000000 0.00000000000000
 0.00000000000000 2.90619155839690 0.00000000000000
 0.00000000000000 0.00000000000000 2.90619155839690
PRIMCOORD
 1 1
 48     0.00000000000000     0.00000000000000     0.00000000000000
