CRYSTAL
PRIMVEC
 -1.82467409511224 1.82467409511224 1.82467409511224
 1.82467409511224 -1.82467409511224 1.82467409511224
 1.82467409511224 1.82467409511224 -1.82467409511224
PRIMCOORD
 1 1
 58     0.00000000000000     0.00000000000000     0.00000000000000
