CRYSTAL
PRIMVEC
 -1.82467409526469 1.82467409526469 1.82467409526469
 1.82467409526469 -1.82467409526469 1.82467409526469
 1.82467409526469 1.82467409526469 -1.82467409526469
PRIMCOORD
 1 1
 58     0.00000000000000     0.00000000000000     0.00000000000000
