CRYSTAL
PRIMVEC
 0.00000000000000 3.06648388322277 3.06648388322277
 3.06648388322277 0.00000000000000 3.06648388322277
 3.06648388322277 3.06648388322277 0.00000000000000
PRIMCOORD
 2 1
 58     0.00000000000000     0.00000000000000     0.00000000000000
 58     1.53324194161139     1.53324194161139     1.53324194161139
