CRYSTAL
PRIMVEC
 2.83899272123544 0.00000000000000 0.00000000000000
 0.00000000000000 2.83899272123544 0.00000000000000
 0.00000000000000 0.00000000000000 2.83899272123544
PRIMCOORD
 1 1
 58     0.00000000000000     0.00000000000000     0.00000000000000
