CRYSTAL
PRIMVEC
 2.83899277372358 0.00000000000000 0.00000000000000
 0.00000000000000 2.83899277372358 0.00000000000000
 0.00000000000000 0.00000000000000 2.83899277372358
PRIMCOORD
 1 1
 58     0.00000000000000     0.00000000000000     0.00000000000000
