CRYSTAL
PRIMVEC
 -1.62608132167816 1.62608132167816 1.62608132167816
 1.62608132167816 -1.62608132167816 1.62608132167816
 1.62608132167816 1.62608132167816 -1.62608132167816
PRIMCOORD
 1 1
 98     0.00000000000000     0.00000000000000     0.00000000000000
