CRYSTAL
PRIMVEC
 -1.62608138039354 1.62608138039354 1.62608138039354
 1.62608138039354 -1.62608138039354 1.62608138039354
 1.62608138039354 1.62608138039354 -1.62608138039354
PRIMCOORD
 1 1
 98     0.00000000000000     0.00000000000000     0.00000000000000
