CRYSTAL
PRIMVEC
 0.00000000000000 2.07282306794856 2.07282306794856
 2.07282306794856 0.00000000000000 2.07282306794856
 2.07282306794856 2.07282306794856 0.00000000000000
PRIMCOORD
 1 1
 98     0.00000000000000     0.00000000000000     0.00000000000000
