CRYSTAL
PRIMVEC
 0.00000000000000 2.07282298505703 2.07282298505703
 2.07282298505703 0.00000000000000 2.07282298505703
 2.07282298505703 2.07282298505703 0.00000000000000
PRIMCOORD
 1 1
 98     0.00000000000000     0.00000000000000     0.00000000000000
