CRYSTAL
PRIMVEC
 2.57930408182315 0.00000000000000 0.00000000000000
 0.00000000000000 2.57930408182315 0.00000000000000
 0.00000000000000 0.00000000000000 2.57930408182315
PRIMCOORD
 1 1
 98     0.00000000000000     0.00000000000000     0.00000000000000
