CRYSTAL
PRIMVEC
 2.57930409415471 0.00000000000000 0.00000000000000
 0.00000000000000 2.57930409415471 0.00000000000000
 0.00000000000000 0.00000000000000 2.57930409415471
PRIMCOORD
 1 1
 98     0.00000000000000     0.00000000000000     0.00000000000000
