CRYSTAL
PRIMVEC
 -1.68931062756563 1.68931062756563 1.68931062756563
 1.68931062756563 -1.68931062756563 1.68931062756563
 1.68931062756563 1.68931062756563 -1.68931062756563
PRIMCOORD
 1 1
 17     0.00000000000000     0.00000000000000     0.00000000000000
