CRYSTAL
PRIMVEC
 -1.68931062586451 1.68931062586451 1.68931062586451
 1.68931062586451 -1.68931062586451 1.68931062586451
 1.68931062586451 1.68931062586451 -1.68931062586451
PRIMCOORD
 1 1
 17     0.00000000000000     0.00000000000000     0.00000000000000
