CRYSTAL
PRIMVEC
 0.00000000000000 2.11931184607488 2.11931184607488
 2.11931184607488 0.00000000000000 2.11931184607488
 2.11931184607488 2.11931184607488 0.00000000000000
PRIMCOORD
 1 1
 17     0.00000000000000     0.00000000000000     0.00000000000000
