CRYSTAL
PRIMVEC
 2.78544688508588 0.00000000000000 0.00000000000000
 0.00000000000000 2.78544688508588 0.00000000000000
 0.00000000000000 0.00000000000000 2.78544688508588
PRIMCOORD
 1 1
 17     0.00000000000000     0.00000000000000     0.00000000000000
