CRYSTAL
PRIMVEC
 2.78544688725021 0.00000000000000 0.00000000000000
 0.00000000000000 2.78544688725021 0.00000000000000
 0.00000000000000 0.00000000000000 2.78544688725021
PRIMCOORD
 1 1
 17     0.00000000000000     0.00000000000000     0.00000000000000
