CRYSTAL
PRIMVEC
 -1.56895065947859 1.56895065947859 1.56895065947859
 1.56895065947859 -1.56895065947859 1.56895065947859
 1.56895065947859 1.56895065947859 -1.56895065947859
PRIMCOORD
 1 1
 96     0.00000000000000     0.00000000000000     0.00000000000000
