CRYSTAL
PRIMVEC
 -1.56895064728856 1.56895064728856 1.56895064728856
 1.56895064728856 -1.56895064728856 1.56895064728856
 1.56895064728856 1.56895064728856 -1.56895064728856
PRIMCOORD
 1 1
 96     0.00000000000000     0.00000000000000     0.00000000000000
