CRYSTAL
PRIMVEC
 0.00000000000000 2.01187344502111 2.01187344502111
 2.01187344502111 0.00000000000000 2.01187344502111
 2.01187344502111 2.01187344502111 0.00000000000000
PRIMCOORD
 1 1
 96     0.00000000000000     0.00000000000000     0.00000000000000
