CRYSTAL
PRIMVEC
 0.00000000000000 2.01187346868254 2.01187346868254
 2.01187346868254 0.00000000000000 2.01187346868254
 2.01187346868254 2.01187346868254 0.00000000000000
PRIMCOORD
 1 1
 96     0.00000000000000     0.00000000000000     0.00000000000000
