CRYSTAL
PRIMVEC
 2.48905510277852 0.00000000000000 0.00000000000000
 0.00000000000000 2.48905510277852 0.00000000000000
 0.00000000000000 0.00000000000000 2.48905510277852
PRIMCOORD
 1 1
 96     0.00000000000000     0.00000000000000     0.00000000000000
