CRYSTAL
PRIMVEC
 -1.36188778744843 1.36188778744843 1.36188778744843
 1.36188778744843 -1.36188778744843 1.36188778744843
 1.36188778744843 1.36188778744843 -1.36188778744843
PRIMCOORD
 1 1
 27     0.00000000000000     0.00000000000000     0.00000000000000
