CRYSTAL
PRIMVEC
 -1.36188779003285 1.36188779003285 1.36188779003285
 1.36188779003285 -1.36188779003285 1.36188779003285
 1.36188779003285 1.36188779003285 -1.36188779003285
PRIMCOORD
 1 1
 27     0.00000000000000     0.00000000000000     0.00000000000000
