CRYSTAL
PRIMVEC
 2.24785402509948 0.00000000000000 0.00000000000000
 0.00000000000000 2.24785402509948 0.00000000000000
 0.00000000000000 0.00000000000000 2.24785402509948
PRIMCOORD
 1 1
 27     0.00000000000000     0.00000000000000     0.00000000000000
