CRYSTAL
PRIMVEC
 2.24785402841620 0.00000000000000 0.00000000000000
 0.00000000000000 2.24785402841620 0.00000000000000
 0.00000000000000 0.00000000000000 2.24785402841620
PRIMCOORD
 1 1
 27     0.00000000000000     0.00000000000000     0.00000000000000
