CRYSTAL
PRIMVEC
 -1.40713891137479 1.40713891137479 1.40713891137479
 1.40713891137479 -1.40713891137479 1.40713891137479
 1.40713891137479 1.40713891137479 -1.40713891137479
PRIMCOORD
 1 1
 24     0.00000000000000     0.00000000000000     0.00000000000000
