CRYSTAL
PRIMVEC
 -1.40713891014869 1.40713891014869 1.40713891014869
 1.40713891014869 -1.40713891014869 1.40713891014869
 1.40713891014869 1.40713891014869 -1.40713891014869
PRIMCOORD
 1 1
 24     0.00000000000000     0.00000000000000     0.00000000000000
