CRYSTAL
PRIMVEC
 0.00000000000000 1.78945697953903 1.78945697953903
 1.78945697953903 0.00000000000000 1.78945697953903
 1.78945697953903 1.78945697953903 0.00000000000000
PRIMCOORD
 1 1
 24     0.00000000000000     0.00000000000000     0.00000000000000
