CRYSTAL
PRIMVEC
 2.30755308359217 0.00000000000000 0.00000000000000
 0.00000000000000 2.30755308359217 0.00000000000000
 0.00000000000000 0.00000000000000 2.30755308359217
PRIMCOORD
 1 1
 24     0.00000000000000     0.00000000000000     0.00000000000000
