CRYSTAL
PRIMVEC
 2.30755310051945 0.00000000000000 0.00000000000000
 0.00000000000000 2.30755310051945 0.00000000000000
 0.00000000000000 0.00000000000000 2.30755310051945
PRIMCOORD
 1 1
 24     0.00000000000000     0.00000000000000     0.00000000000000
