CRYSTAL
PRIMVEC
 -3.00466329380157 3.00466329380157 3.00466329380157
 3.00466329380157 -3.00466329380157 3.00466329380157
 3.00466329380157 3.00466329380157 -3.00466329380157
PRIMCOORD
 1 1
 55     0.00000000000000     0.00000000000000     0.00000000000000
