CRYSTAL
PRIMVEC
 0.00000000000000 3.79210186988101 3.79210186988101
 3.79210186988101 0.00000000000000 3.79210186988101
 3.79210186988101 3.79210186988101 0.00000000000000
PRIMCOORD
 1 1
 55     0.00000000000000     0.00000000000000     0.00000000000000
