CRYSTAL
PRIMVEC
 0.00000000000000 3.79210187445421 3.79210187445421
 3.79210187445421 0.00000000000000 3.79210187445421
 3.79210187445421 3.79210187445421 0.00000000000000
PRIMCOORD
 1 1
 55     0.00000000000000     0.00000000000000     0.00000000000000
