CRYSTAL
PRIMVEC
 4.92035738455827 0.00000000000000 0.00000000000000
 0.00000000000000 4.92035738455827 0.00000000000000
 0.00000000000000 0.00000000000000 4.92035738455827
PRIMCOORD
 1 1
 55     0.00000000000000     0.00000000000000     0.00000000000000
