CRYSTAL
PRIMVEC
 4.92035739262419 0.00000000000000 0.00000000000000
 0.00000000000000 4.92035739262419 0.00000000000000
 0.00000000000000 0.00000000000000 4.92035739262419
PRIMCOORD
 1 1
 55     0.00000000000000     0.00000000000000     0.00000000000000
