CRYSTAL
PRIMVEC
 -1.41607826052861 1.41607826052861 1.41607826052861
 1.41607826052861 -1.41607826052861 1.41607826052861
 1.41607826052861 1.41607826052861 -1.41607826052861
PRIMCOORD
 1 1
 29     0.00000000000000     0.00000000000000     0.00000000000000
