CRYSTAL
PRIMVEC
 -1.41607825922693 1.41607825922693 1.41607825922693
 1.41607825922693 -1.41607825922693 1.41607825922693
 1.41607825922693 1.41607825922693 -1.41607825922693
PRIMCOORD
 1 1
 29     0.00000000000000     0.00000000000000     0.00000000000000
