CRYSTAL
PRIMVEC
 2.35967642513743 0.00000000000000 0.00000000000000
 0.00000000000000 2.35967642513743 0.00000000000000
 0.00000000000000 0.00000000000000 2.35967642513743
PRIMCOORD
 1 1
 29     0.00000000000000     0.00000000000000     0.00000000000000
