CRYSTAL
PRIMVEC
 -1.91977579218468 1.91977579218468 1.91977579218468
 1.91977579218468 -1.91977579218468 1.91977579218468
 1.91977579218468 1.91977579218468 -1.91977579218468
PRIMCOORD
 1 1
 66     0.00000000000000     0.00000000000000     0.00000000000000
