CRYSTAL
PRIMVEC
 0.00000000000000 2.40719865863836 2.40719865863836
 2.40719865863836 0.00000000000000 2.40719865863836
 2.40719865863836 2.40719865863836 0.00000000000000
PRIMCOORD
 1 1
 66     0.00000000000000     0.00000000000000     0.00000000000000
