CRYSTAL
PRIMVEC
 2.92416344064207 0.00000000000000 0.00000000000000
 0.00000000000000 2.92416344064207 0.00000000000000
 0.00000000000000 0.00000000000000 2.92416344064207
PRIMCOORD
 1 1
 66     0.00000000000000     0.00000000000000     0.00000000000000
