CRYSTAL
PRIMVEC
 2.92416345048874 0.00000000000000 0.00000000000000
 0.00000000000000 2.92416345048874 0.00000000000000
 0.00000000000000 0.00000000000000 2.92416345048874
PRIMCOORD
 1 1
 66     0.00000000000000     0.00000000000000     0.00000000000000
