CRYSTAL
PRIMVEC
 -1.96958118437318 1.96958118437318 1.96958118437318
 1.96958118437318 -1.96958118437318 1.96958118437318
 1.96958118437318 1.96958118437318 -1.96958118437318
PRIMCOORD
 1 1
 68     0.00000000000000     0.00000000000000     0.00000000000000
