CRYSTAL
PRIMVEC
 -1.96958118570050 1.96958118570050 1.96958118570050
 1.96958118570050 -1.96958118570050 1.96958118570050
 1.96958118570050 1.96958118570050 -1.96958118570050
PRIMCOORD
 1 1
 68     0.00000000000000     0.00000000000000     0.00000000000000
