CRYSTAL
PRIMVEC
 3.14840217288694 0.00000000000000 0.00000000000000
 0.00000000000000 3.14840217288694 0.00000000000000
 0.00000000000000 0.00000000000000 3.14840217288694
PRIMCOORD
 1 1
 68     0.00000000000000     0.00000000000000     0.00000000000000
