CRYSTAL
PRIMVEC
 -1.69266479161008 1.69266479161008 1.69266479161008
 1.69266479161008 -1.69266479161008 1.69266479161008
 1.69266479161008 1.69266479161008 -1.69266479161008
PRIMCOORD
 1 1
 99     0.00000000000000     0.00000000000000     0.00000000000000
