CRYSTAL
PRIMVEC
 -1.69266446249070 1.69266446249070 1.69266446249070
 1.69266446249070 -1.69266446249070 1.69266446249070
 1.69266446249070 1.69266446249070 -1.69266446249070
PRIMCOORD
 1 1
 99     0.00000000000000     0.00000000000000     0.00000000000000
