CRYSTAL
PRIMVEC
 0.00000000000000 2.14751761193720 2.14751761193720
 2.14751761193720 0.00000000000000 2.14751761193720
 2.14751761193720 2.14751761193720 0.00000000000000
PRIMCOORD
 1 1
 99     0.00000000000000     0.00000000000000     0.00000000000000
