CRYSTAL
PRIMVEC
 0.00000000000000 2.14751730160985 2.14751730160985
 2.14751730160985 0.00000000000000 2.14751730160985
 2.14751730160985 2.14751730160985 0.00000000000000
PRIMCOORD
 1 1
 99     0.00000000000000     0.00000000000000     0.00000000000000
