CRYSTAL
PRIMVEC
 2.67256837356211 0.00000000000000 0.00000000000000
 0.00000000000000 2.67256837356211 0.00000000000000
 0.00000000000000 0.00000000000000 2.67256837356211
PRIMCOORD
 1 1
 99     0.00000000000000     0.00000000000000     0.00000000000000
