CRYSTAL
PRIMVEC
 2.67256840919033 0.00000000000000 0.00000000000000
 0.00000000000000 2.67256840919033 0.00000000000000
 0.00000000000000 0.00000000000000 2.67256840919033
PRIMCOORD
 1 1
 99     0.00000000000000     0.00000000000000     0.00000000000000
