CRYSTAL
PRIMVEC
 -1.65996582757846 1.65996582757846 1.65996582757846
 1.65996582757846 -1.65996582757846 1.65996582757846
 1.65996582757846 1.65996582757846 -1.65996582757846
PRIMCOORD
 1 1
 63     0.00000000000000     0.00000000000000     0.00000000000000
