CRYSTAL
PRIMVEC
 -1.65996565047021 1.65996565047021 1.65996565047021
 1.65996565047021 -1.65996565047021 1.65996565047021
 1.65996565047021 1.65996565047021 -1.65996565047021
PRIMCOORD
 1 1
 63     0.00000000000000     0.00000000000000     0.00000000000000
