CRYSTAL
PRIMVEC
 0.00000000000000 2.17232949540270 2.17232949540270
 2.17232949540270 0.00000000000000 2.17232949540270
 2.17232949540270 2.17232949540270 0.00000000000000
PRIMCOORD
 1 1
 63     0.00000000000000     0.00000000000000     0.00000000000000
