CRYSTAL
PRIMVEC
 2.52226911798863 0.00000000000000 0.00000000000000
 0.00000000000000 2.52226911798863 0.00000000000000
 0.00000000000000 0.00000000000000 2.52226911798863
PRIMCOORD
 1 1
 63     0.00000000000000     0.00000000000000     0.00000000000000
