CRYSTAL
PRIMVEC
 2.52226913740030 0.00000000000000 0.00000000000000
 0.00000000000000 2.52226913740030 0.00000000000000
 0.00000000000000 0.00000000000000 2.52226913740030
PRIMCOORD
 1 1
 63     0.00000000000000     0.00000000000000     0.00000000000000
