CRYSTAL
PRIMVEC
 -1.31841706779301 1.31841706779301 1.31841706779301
 1.31841706779301 -1.31841706779301 1.31841706779301
 1.31841706779301 1.31841706779301 -1.31841706779301
PRIMCOORD
 1 1
  9     0.00000000000000     0.00000000000000     0.00000000000000
