CRYSTAL
PRIMVEC
 -1.31841706840294 1.31841706840294 1.31841706840294
 1.31841706840294 -1.31841706840294 1.31841706840294
 1.31841706840294 1.31841706840294 -1.31841706840294
PRIMCOORD
 1 1
  9     0.00000000000000     0.00000000000000     0.00000000000000
