CRYSTAL
PRIMVEC
 0.00000000000000 1.66231366905032 1.66231366905032
 1.66231366905032 0.00000000000000 1.66231366905032
 1.66231366905032 1.66231366905032 0.00000000000000
PRIMCOORD
 1 1
  9     0.00000000000000     0.00000000000000     0.00000000000000
