CRYSTAL
PRIMVEC
 2.13507653134685 0.00000000000000 0.00000000000000
 0.00000000000000 2.13507653134685 0.00000000000000
 0.00000000000000 0.00000000000000 2.13507653134685
PRIMCOORD
 1 1
  9     0.00000000000000     0.00000000000000     0.00000000000000
