CRYSTAL
PRIMVEC
 -1.36157269657530 1.36157269657530 1.36157269657530
 1.36157269657530 -1.36157269657530 1.36157269657530
 1.36157269657530 1.36157269657530 -1.36157269657530
PRIMCOORD
 1 1
 26     0.00000000000000     0.00000000000000     0.00000000000000
