CRYSTAL
PRIMVEC
 -1.36157270144815 1.36157270144815 1.36157270144815
 1.36157270144815 -1.36157270144815 1.36157270144815
 1.36157270144815 1.36157270144815 -1.36157270144815
PRIMCOORD
 1 1
 26     0.00000000000000     0.00000000000000     0.00000000000000
