CRYSTAL
PRIMVEC
 0.00000000000000 1.70265029646416 1.70265029646416
 1.70265029646416 0.00000000000000 1.70265029646416
 1.70265029646416 1.70265029646416 0.00000000000000
PRIMCOORD
 1 1
 26     0.00000000000000     0.00000000000000     0.00000000000000
