CRYSTAL
PRIMVEC
 0.00000000000000 1.70265030207462 1.70265030207462
 1.70265030207462 0.00000000000000 1.70265030207462
 1.70265030207462 1.70265030207462 0.00000000000000
PRIMCOORD
 1 1
 26     0.00000000000000     0.00000000000000     0.00000000000000
