CRYSTAL
PRIMVEC
 2.23498313440585 0.00000000000000 0.00000000000000
 0.00000000000000 2.23498313440585 0.00000000000000
 0.00000000000000 0.00000000000000 2.23498313440585
PRIMCOORD
 1 1
 26     0.00000000000000     0.00000000000000     0.00000000000000
