CRYSTAL
PRIMVEC
 2.23498312989713 0.00000000000000 0.00000000000000
 0.00000000000000 2.23498312989713 0.00000000000000
 0.00000000000000 0.00000000000000 2.23498312989713
PRIMCOORD
 1 1
 26     0.00000000000000     0.00000000000000     0.00000000000000
