CRYSTAL
PRIMVEC
 -1.80026168644396 1.80026168644396 1.80026168644396
 1.80026168644396 -1.80026168644396 1.80026168644396
 1.80026168644396 1.80026168644396 -1.80026168644396
PRIMCOORD
 1 1
 100     0.00000000000000     0.00000000000000     0.00000000000000
