CRYSTAL
PRIMVEC
 -1.80026244950510 1.80026244950510 1.80026244950510
 1.80026244950510 -1.80026244950510 1.80026244950510
 1.80026244950510 1.80026244950510 -1.80026244950510
PRIMCOORD
 1 1
 100     0.00000000000000     0.00000000000000     0.00000000000000
