CRYSTAL
PRIMVEC
 0.00000000000000 2.27642200730068 2.27642200730068
 2.27642200730068 0.00000000000000 2.27642200730068
 2.27642200730068 2.27642200730068 0.00000000000000
PRIMCOORD
 1 1
 100     0.00000000000000     0.00000000000000     0.00000000000000
