CRYSTAL
PRIMVEC
 2.85809746330114 0.00000000000000 0.00000000000000
 0.00000000000000 2.85809746330114 0.00000000000000
 0.00000000000000 0.00000000000000 2.85809746330114
PRIMCOORD
 1 1
 100     0.00000000000000     0.00000000000000     0.00000000000000
