CRYSTAL
PRIMVEC
 -2.97482074113726 2.97482074113726 2.97482074113726
 2.97482074113726 -2.97482074113726 2.97482074113726
 2.97482074113726 2.97482074113726 -2.97482074113726
PRIMCOORD
 1 1
 87     0.00000000000000     0.00000000000000     0.00000000000000
