CRYSTAL
PRIMVEC
 -2.97482064818036 2.97482064818036 2.97482064818036
 2.97482064818036 -2.97482064818036 2.97482064818036
 2.97482064818036 2.97482064818036 -2.97482064818036
PRIMCOORD
 1 1
 87     0.00000000000000     0.00000000000000     0.00000000000000
