CRYSTAL
PRIMVEC
 0.00000000000000 3.75877970781644 3.75877970781644
 3.75877970781644 0.00000000000000 3.75877970781644
 3.75877970781644 3.75877970781644 0.00000000000000
PRIMCOORD
 1 1
 87     0.00000000000000     0.00000000000000     0.00000000000000
