CRYSTAL
PRIMVEC
 4.93871224431862 0.00000000000000 0.00000000000000
 0.00000000000000 4.93871224431862 0.00000000000000
 0.00000000000000 0.00000000000000 4.93871224431862
PRIMCOORD
 1 1
 87     0.00000000000000     0.00000000000000     0.00000000000000
