CRYSTAL
PRIMVEC
 -1.65022215890596 1.65022215890596 1.65022215890596
 1.65022215890596 -1.65022215890596 1.65022215890596
 1.65022215890596 1.65022215890596 -1.65022215890596
PRIMCOORD
 1 1
 31     0.00000000000000     0.00000000000000     0.00000000000000
