CRYSTAL
PRIMVEC
 -1.65022217000827 1.65022217000827 1.65022217000827
 1.65022217000827 -1.65022217000827 1.65022217000827
 1.65022217000827 1.65022217000827 -1.65022217000827
PRIMCOORD
 1 1
 31     0.00000000000000     0.00000000000000     0.00000000000000
