CRYSTAL
PRIMVEC
 0.00000000000000 2.06971620857623 2.06971620857623
 2.06971620857623 0.00000000000000 2.06971620857623
 2.06971620857623 2.06971620857623 0.00000000000000
PRIMCOORD
 1 1
 31     0.00000000000000     0.00000000000000     0.00000000000000
