CRYSTAL
PRIMVEC
 2.65974054899190 0.00000000000000 0.00000000000000
 0.00000000000000 2.65974054899190 0.00000000000000
 0.00000000000000 0.00000000000000 2.65974054899190
PRIMCOORD
 1 1
 31     0.00000000000000     0.00000000000000     0.00000000000000
