CRYSTAL
PRIMVEC
 -1.80201391166359 1.80201391166359 1.80201391166359
 1.80201391166359 -1.80201391166359 1.80201391166359
 1.80201391166359 1.80201391166359 -1.80201391166359
PRIMCOORD
 1 1
 64     0.00000000000000     0.00000000000000     0.00000000000000
