CRYSTAL
PRIMVEC
 -1.80201315790211 1.80201315790211 1.80201315790211
 1.80201315790211 -1.80201315790211 1.80201315790211
 1.80201315790211 1.80201315790211 -1.80201315790211
PRIMCOORD
 1 1
 64     0.00000000000000     0.00000000000000     0.00000000000000
