CRYSTAL
PRIMVEC
 0.00000000000000 2.25937548605919 2.25937548605919
 2.25937548605919 0.00000000000000 2.25937548605919
 2.25937548605919 2.25937548605919 0.00000000000000
PRIMCOORD
 1 1
 64     0.00000000000000     0.00000000000000     0.00000000000000
