CRYSTAL
PRIMVEC
 2.56152466151472 0.00000000000000 0.00000000000000
 0.00000000000000 2.56152466151472 0.00000000000000
 0.00000000000000 0.00000000000000 2.56152466151472
PRIMCOORD
 1 1
 64     0.00000000000000     0.00000000000000     0.00000000000000
