CRYSTAL
PRIMVEC
 -1.65917575211531 1.65917575211531 1.65917575211531
 1.65917575211531 -1.65917575211531 1.65917575211531
 1.65917575211531 1.65917575211531 -1.65917575211531
PRIMCOORD
 1 1
 32     0.00000000000000     0.00000000000000     0.00000000000000
