CRYSTAL
PRIMVEC
 -1.65917570299804 1.65917570299804 1.65917570299804
 1.65917570299804 -1.65917570299804 1.65917570299804
 1.65917570299804 1.65917570299804 -1.65917570299804
PRIMCOORD
 1 1
 32     0.00000000000000     0.00000000000000     0.00000000000000
