CRYSTAL
PRIMVEC
 0.00000000000000 2.10170323968234 2.10170323968234
 2.10170323968234 0.00000000000000 2.10170323968234
 2.10170323968234 2.10170323968234 0.00000000000000
PRIMCOORD
 1 1
 32     0.00000000000000     0.00000000000000     0.00000000000000
