CRYSTAL
PRIMVEC
 2.66778241972540 0.00000000000000 0.00000000000000
 0.00000000000000 2.66778241972540 0.00000000000000
 0.00000000000000 0.00000000000000 2.66778241972540
PRIMCOORD
 1 1
 32     0.00000000000000     0.00000000000000     0.00000000000000
