CRYSTAL
PRIMVEC
 -0.89955375687207 0.89955375687207 0.89955375687207
 0.89955375687207 -0.89955375687207 0.89955375687207
 0.89955375687207 0.89955375687207 -0.89955375687207
PRIMCOORD
 1 1
  1     0.00000000000000     0.00000000000000     0.00000000000000
