CRYSTAL
PRIMVEC
 -0.89955375723483 0.89955375723483 0.89955375723483
 0.89955375723483 -0.89955375723483 0.89955375723483
 0.89955375723483 0.89955375723483 -0.89955375723483
PRIMCOORD
 1 1
  1     0.00000000000000     0.00000000000000     0.00000000000000
