CRYSTAL
PRIMVEC
 0.00000000000000 1.13312443251987 1.13312443251987
 1.13312443251987 0.00000000000000 1.13312443251987
 1.13312443251987 1.13312443251987 0.00000000000000
PRIMCOORD
 1 1
  1     0.00000000000000     0.00000000000000     0.00000000000000
