CRYSTAL
PRIMVEC
 0.00000000000000 1.13312443233761 1.13312443233761
 1.13312443233761 0.00000000000000 1.13312443233761
 1.13312443233761 1.13312443233761 0.00000000000000
PRIMCOORD
 1 1
  1     0.00000000000000     0.00000000000000     0.00000000000000
