CRYSTAL
PRIMVEC
 1.44625970270930 0.00000000000000 0.00000000000000
 0.00000000000000 1.44625970270930 0.00000000000000
 0.00000000000000 0.00000000000000 1.44625970270930
PRIMCOORD
 1 1
  1     0.00000000000000     0.00000000000000     0.00000000000000
