CRYSTAL
PRIMVEC
 1.44625971342989 0.00000000000000 0.00000000000000
 0.00000000000000 1.44625971342989 0.00000000000000
 0.00000000000000 0.00000000000000 1.44625971342989
PRIMCOORD
 1 1
  1     0.00000000000000     0.00000000000000     0.00000000000000
