CRYSTAL
PRIMVEC
 -1.72011467189375 1.72011467189375 1.72011467189375
 1.72011467189375 -1.72011467189375 1.72011467189375
 1.72011467189375 1.72011467189375 -1.72011467189375
PRIMCOORD
 1 1
  2     0.00000000000000     0.00000000000000     0.00000000000000
