CRYSTAL
PRIMVEC
 -1.72011478268571 1.72011478268571 1.72011478268571
 1.72011478268571 -1.72011478268571 1.72011478268571
 1.72011478268571 1.72011478268571 -1.72011478268571
PRIMCOORD
 1 1
  2     0.00000000000000     0.00000000000000     0.00000000000000
