CRYSTAL
PRIMVEC
 0.00000000000000 2.15532268561345 2.15532268561345
 2.15532268561345 0.00000000000000 2.15532268561345
 2.15532268561345 2.15532268561345 0.00000000000000
PRIMCOORD
 1 1
  2     0.00000000000000     0.00000000000000     0.00000000000000
