CRYSTAL
PRIMVEC
 2.89873464157682 0.00000000000000 0.00000000000000
 0.00000000000000 2.89873464157682 0.00000000000000
 0.00000000000000 0.00000000000000 2.89873464157682
PRIMCOORD
 1 1
  2     0.00000000000000     0.00000000000000     0.00000000000000
