CRYSTAL
PRIMVEC
 2.89873456626757 0.00000000000000 0.00000000000000
 0.00000000000000 2.89873456626757 0.00000000000000
 0.00000000000000 0.00000000000000 2.89873456626757
PRIMCOORD
 1 1
  2     0.00000000000000     0.00000000000000     0.00000000000000
