CRYSTAL
PRIMVEC
 -1.74573119157341 1.74573119157341 1.74573119157341
 1.74573119157341 -1.74573119157341 1.74573119157341
 1.74573119157341 1.74573119157341 -1.74573119157341
PRIMCOORD
 1 1
 72     0.00000000000000     0.00000000000000     0.00000000000000
