CRYSTAL
PRIMVEC
 -1.74573119102182 1.74573119102182 1.74573119102182
 1.74573119102182 -1.74573119102182 1.74573119102182
 1.74573119102182 1.74573119102182 -1.74573119102182
PRIMCOORD
 1 1
 72     0.00000000000000     0.00000000000000     0.00000000000000
