CRYSTAL
PRIMVEC
 0.00000000000000 2.20975040503555 2.20975040503555
 2.20975040503555 0.00000000000000 2.20975040503555
 2.20975040503555 2.20975040503555 0.00000000000000
PRIMCOORD
 1 1
 72     0.00000000000000     0.00000000000000     0.00000000000000
