CRYSTAL
PRIMVEC
 0.00000000000000 2.20975040356649 2.20975040356649
 2.20975040356649 0.00000000000000 2.20975040356649
 2.20975040356649 2.20975040356649 0.00000000000000
PRIMCOORD
 1 1
 72     0.00000000000000     0.00000000000000     0.00000000000000
