CRYSTAL
PRIMVEC
 2.86443764539807 0.00000000000000 0.00000000000000
 0.00000000000000 2.86443764539807 0.00000000000000
 0.00000000000000 0.00000000000000 2.86443764539807
PRIMCOORD
 1 1
 72     0.00000000000000     0.00000000000000     0.00000000000000
