CRYSTAL
PRIMVEC
 2.86443766228725 0.00000000000000 0.00000000000000
 0.00000000000000 2.86443766228725 0.00000000000000
 0.00000000000000 0.00000000000000 2.86443766228725
PRIMCOORD
 1 1
 72     0.00000000000000     0.00000000000000     0.00000000000000
