CRYSTAL
PRIMVEC
 -1.81580963666624 1.81580963666624 1.81580963666624
 1.81580963666624 -1.81580963666624 1.81580963666624
 1.81580963666624 1.81580963666624 -1.81580963666624
PRIMCOORD
 1 1
 80     0.00000000000000     0.00000000000000     0.00000000000000
