CRYSTAL
PRIMVEC
 -1.81580967746876 1.81580967746876 1.81580967746876
 1.81580967746876 -1.81580967746876 1.81580967746876
 1.81580967746876 1.81580967746876 -1.81580967746876
PRIMCOORD
 1 1
 80     0.00000000000000     0.00000000000000     0.00000000000000
