CRYSTAL
PRIMVEC
 0.00000000000000 2.26721931982651 2.26721931982651
 2.26721931982651 0.00000000000000 2.26721931982651
 2.26721931982651 2.26721931982651 0.00000000000000
PRIMCOORD
 1 1
 80     0.00000000000000     0.00000000000000     0.00000000000000
