CRYSTAL
PRIMVEC
 2.94796095736038 0.00000000000000 0.00000000000000
 0.00000000000000 2.94796095736038 0.00000000000000
 0.00000000000000 0.00000000000000 2.94796095736038
PRIMCOORD
 1 1
 80     0.00000000000000     0.00000000000000     0.00000000000000
