CRYSTAL
PRIMVEC
 2.94796097489249 0.00000000000000 0.00000000000000
 0.00000000000000 2.94796097489249 0.00000000000000
 0.00000000000000 0.00000000000000 2.94796097489249
PRIMCOORD
 1 1
 80     0.00000000000000     0.00000000000000     0.00000000000000
