CRYSTAL
PRIMVEC
 -1.94925477641556 1.94925477641556 1.94925477641556
 1.94925477641556 -1.94925477641556 1.94925477641556
 1.94925477641556 1.94925477641556 -1.94925477641556
PRIMCOORD
 1 1
 67     0.00000000000000     0.00000000000000     0.00000000000000
