CRYSTAL
PRIMVEC
 -1.94925477752060 1.94925477752060 1.94925477752060
 1.94925477752060 -1.94925477752060 1.94925477752060
 1.94925477752060 1.94925477752060 -1.94925477752060
PRIMCOORD
 1 1
 67     0.00000000000000     0.00000000000000     0.00000000000000
