CRYSTAL
PRIMVEC
 0.00000000000000 2.45634796730614 2.45634796730614
 2.45634796730614 0.00000000000000 2.45634796730614
 2.45634796730614 2.45634796730614 0.00000000000000
PRIMCOORD
 1 1
 67     0.00000000000000     0.00000000000000     0.00000000000000
