CRYSTAL
PRIMVEC
 3.06628106904730 0.00000000000000 0.00000000000000
 0.00000000000000 3.06628106904730 0.00000000000000
 0.00000000000000 0.00000000000000 3.06628106904730
PRIMCOORD
 1 1
 67     0.00000000000000     0.00000000000000     0.00000000000000
