CRYSTAL
PRIMVEC
 -2.01478647001199 2.01478647001199 2.01478647001199
 2.01478647001199 -2.01478647001199 2.01478647001199
 2.01478647001199 2.01478647001199 -2.01478647001199
PRIMCOORD
 1 1
 53     0.00000000000000     0.00000000000000     0.00000000000000
