CRYSTAL
PRIMVEC
 -2.01478647046641 2.01478647046641 2.01478647046641
 2.01478647046641 -2.01478647046641 2.01478647046641
 2.01478647046641 2.01478647046641 -2.01478647046641
PRIMCOORD
 1 1
 53     0.00000000000000     0.00000000000000     0.00000000000000
