CRYSTAL
PRIMVEC
 0.00000000000000 2.51544199908533 2.51544199908533
 2.51544199908533 0.00000000000000 2.51544199908533
 2.51544199908533 2.51544199908533 0.00000000000000
PRIMCOORD
 1 1
 53     0.00000000000000     0.00000000000000     0.00000000000000
