CRYSTAL
PRIMVEC
 3.37820133659838 0.00000000000000 0.00000000000000
 0.00000000000000 3.37820133659838 0.00000000000000
 0.00000000000000 0.00000000000000 3.37820133659838
PRIMCOORD
 1 1
 53     0.00000000000000     0.00000000000000     0.00000000000000
