CRYSTAL
PRIMVEC
 -1.86188180851695 1.86188180851695 1.86188180851695
 1.86188180851695 -1.86188180851695 1.86188180851695
 1.86188180851695 1.86188180851695 -1.86188180851695
PRIMCOORD
 1 1
 49     0.00000000000000     0.00000000000000     0.00000000000000
