CRYSTAL
PRIMVEC
 -1.86188185448672 1.86188185448672 1.86188185448672
 1.86188185448672 -1.86188185448672 1.86188185448672
 1.86188185448672 1.86188185448672 -1.86188185448672
PRIMCOORD
 1 1
 49     0.00000000000000     0.00000000000000     0.00000000000000
