CRYSTAL
PRIMVEC
 0.00000000000000 2.33902477456726 2.33902477456726
 2.33902477456726 0.00000000000000 2.33902477456726
 2.33902477456726 2.33902477456726 0.00000000000000
PRIMCOORD
 1 1
 49     0.00000000000000     0.00000000000000     0.00000000000000
