CRYSTAL
PRIMVEC
 3.01298344577003 0.00000000000000 0.00000000000000
 0.00000000000000 3.01298344577003 0.00000000000000
 0.00000000000000 0.00000000000000 3.01298344577003
PRIMCOORD
 1 1
 49     0.00000000000000     0.00000000000000     0.00000000000000
