CRYSTAL
PRIMVEC
 3.01298344980880 0.00000000000000 0.00000000000000
 0.00000000000000 3.01298344980880 0.00000000000000
 0.00000000000000 0.00000000000000 3.01298344980880
PRIMCOORD
 1 1
 49     0.00000000000000     0.00000000000000     0.00000000000000
