CRYSTAL
PRIMVEC
 -1.53841757921044 1.53841757921044 1.53841757921044
 1.53841757921044 -1.53841757921044 1.53841757921044
 1.53841757921044 1.53841757921044 -1.53841757921044
PRIMCOORD
 1 1
 77     0.00000000000000     0.00000000000000     0.00000000000000
