CRYSTAL
PRIMVEC
 2.54124688869037 0.00000000000000 0.00000000000000
 0.00000000000000 2.54124688869037 0.00000000000000
 0.00000000000000 0.00000000000000 2.54124688869037
PRIMCOORD
 1 1
 77     0.00000000000000     0.00000000000000     0.00000000000000
