CRYSTAL
PRIMVEC
 2.54124687723033 0.00000000000000 0.00000000000000
 0.00000000000000 2.54124687723033 0.00000000000000
 0.00000000000000 0.00000000000000 2.54124687723033
PRIMCOORD
 1 1
 77     0.00000000000000     0.00000000000000     0.00000000000000
