CRYSTAL
PRIMVEC
 -2.60769961416132 2.60769961416132 2.60769961416132
 2.60769961416132 -2.60769961416132 2.60769961416132
 2.60769961416132 2.60769961416132 -2.60769961416132
PRIMCOORD
 1 1
 19     0.00000000000000     0.00000000000000     0.00000000000000
