CRYSTAL
PRIMVEC
 -2.60769961410493 2.60769961410493 2.60769961410493
 2.60769961410493 -2.60769961410493 2.60769961410493
 2.60769961410493 2.60769961410493 -2.60769961410493
PRIMCOORD
 1 1
 19     0.00000000000000     0.00000000000000     0.00000000000000
