CRYSTAL
PRIMVEC
 0.00000000000000 3.28881997778184 3.28881997778184
 3.28881997778184 0.00000000000000 3.28881997778184
 3.28881997778184 3.28881997778184 0.00000000000000
PRIMCOORD
 1 1
 19     0.00000000000000     0.00000000000000     0.00000000000000
