CRYSTAL
PRIMVEC
 0.00000000000000 3.28881998214836 3.28881998214836
 3.28881998214836 0.00000000000000 3.28881998214836
 3.28881998214836 3.28881998214836 0.00000000000000
PRIMCOORD
 1 1
 19     0.00000000000000     0.00000000000000     0.00000000000000
