CRYSTAL
PRIMVEC
 4.23595452729394 0.00000000000000 0.00000000000000
 0.00000000000000 4.23595452729394 0.00000000000000
 0.00000000000000 0.00000000000000 4.23595452729394
PRIMCOORD
 1 1
 19     0.00000000000000     0.00000000000000     0.00000000000000
