CRYSTAL
PRIMVEC
 4.23595453332026 0.00000000000000 0.00000000000000
 0.00000000000000 4.23595453332026 0.00000000000000
 0.00000000000000 0.00000000000000 4.23595453332026
PRIMCOORD
 1 1
 19     0.00000000000000     0.00000000000000     0.00000000000000
