CRYSTAL
PRIMVEC
 -2.46926429365348 2.46926429365348 2.46926429365348
 2.46926429365348 -2.46926429365348 2.46926429365348
 2.46926429365348 2.46926429365348 -2.46926429365348
PRIMCOORD
 1 1
 36     0.00000000000000     0.00000000000000     0.00000000000000
