CRYSTAL
PRIMVEC
 4.24747983387021 0.00000000000000 0.00000000000000
 0.00000000000000 4.24747983387021 0.00000000000000
 0.00000000000000 0.00000000000000 4.24747983387021
PRIMCOORD
 1 1
 36     0.00000000000000     0.00000000000000     0.00000000000000
