CRYSTAL
PRIMVEC
 4.24747980291407 0.00000000000000 0.00000000000000
 0.00000000000000 4.24747980291407 0.00000000000000
 0.00000000000000 0.00000000000000 4.24747980291407
PRIMCOORD
 1 1
 36     0.00000000000000     0.00000000000000     0.00000000000000
