CRYSTAL
PRIMVEC
 -2.05741478857722 2.05741478857722 2.05741478857722
 2.05741478857722 -2.05741478857722 2.05741478857722
 2.05741478857722 2.05741478857722 -2.05741478857722
PRIMCOORD
 1 1
 57     0.00000000000000     0.00000000000000     0.00000000000000
