CRYSTAL
PRIMVEC
 -2.05741476941491 2.05741476941491 2.05741476941491
 2.05741476941491 -2.05741476941491 2.05741476941491
 2.05741476941491 2.05741476941491 -2.05741476941491
PRIMCOORD
 1 1
 57     0.00000000000000     0.00000000000000     0.00000000000000
