CRYSTAL
PRIMVEC
 0.00000000000000 2.56453365157505 2.56453365157505
 2.56453365157505 0.00000000000000 2.56453365157505
 2.56453365157505 2.56453365157505 0.00000000000000
PRIMCOORD
 1 1
 57     0.00000000000000     0.00000000000000     0.00000000000000
