CRYSTAL
PRIMVEC
 3.22244109559591 0.00000000000000 0.00000000000000
 0.00000000000000 3.22244109559591 0.00000000000000
 0.00000000000000 0.00000000000000 3.22244109559591
PRIMCOORD
 1 1
 57     0.00000000000000     0.00000000000000     0.00000000000000
