CRYSTAL
PRIMVEC
 3.22244129881871 0.00000000000000 0.00000000000000
 0.00000000000000 3.22244129881871 0.00000000000000
 0.00000000000000 0.00000000000000 3.22244129881871
PRIMCOORD
 1 1
 57     0.00000000000000     0.00000000000000     0.00000000000000
