CRYSTAL
PRIMVEC
 -1.71691370810460 1.71691370810460 1.71691370810460
 1.71691370810460 -1.71691370810460 1.71691370810460
 1.71691370810460 1.71691370810460 -1.71691370810460
PRIMCOORD
 1 1
  3     0.00000000000000     0.00000000000000     0.00000000000000
