CRYSTAL
PRIMVEC
 0.00000000000000 2.16153598809379 2.16153598809379
 2.16153598809379 0.00000000000000 2.16153598809379
 2.16153598809379 2.16153598809379 0.00000000000000
PRIMCOORD
 1 1
  3     0.00000000000000     0.00000000000000     0.00000000000000
