CRYSTAL
PRIMVEC
 0.00000000000000 2.16153599304001 2.16153599304001
 2.16153599304001 0.00000000000000 2.16153599304001
 2.16153599304001 2.16153599304001 0.00000000000000
PRIMCOORD
 1 1
  3     0.00000000000000     0.00000000000000     0.00000000000000
