CRYSTAL
PRIMVEC
 2.73069251387625 0.00000000000000 0.00000000000000
 0.00000000000000 2.73069251387625 0.00000000000000
 0.00000000000000 0.00000000000000 2.73069251387625
PRIMCOORD
 1 1
  3     0.00000000000000     0.00000000000000     0.00000000000000
