CRYSTAL
PRIMVEC
 2.73069251104884 0.00000000000000 0.00000000000000
 0.00000000000000 2.73069251104884 0.00000000000000
 0.00000000000000 0.00000000000000 2.73069251104884
PRIMCOORD
 1 1
  3     0.00000000000000     0.00000000000000     0.00000000000000
