CRYSTAL
PRIMVEC
 -1.92424731531125 1.92424731531125 1.92424731531125
 1.92424731531125 -1.92424731531125 1.92424731531125
 1.92424731531125 1.92424731531125 -1.92424731531125
PRIMCOORD
 1 1
 103     0.00000000000000     0.00000000000000     0.00000000000000
