CRYSTAL
PRIMVEC
 -1.92424731475354 1.92424731475354 1.92424731475354
 1.92424731475354 -1.92424731475354 1.92424731475354
 1.92424731475354 1.92424731475354 -1.92424731475354
PRIMCOORD
 1 1
 103     0.00000000000000     0.00000000000000     0.00000000000000
