CRYSTAL
PRIMVEC
 0.00000000000000 2.40368221918739 2.40368221918739
 2.40368221918739 0.00000000000000 2.40368221918739
 2.40368221918739 2.40368221918739 0.00000000000000
PRIMCOORD
 1 1
 103     0.00000000000000     0.00000000000000     0.00000000000000
