CRYSTAL
PRIMVEC
 3.18138805468370 0.00000000000000 0.00000000000000
 0.00000000000000 3.18138805468370 0.00000000000000
 0.00000000000000 0.00000000000000 3.18138805468370
PRIMCOORD
 1 1
 103     0.00000000000000     0.00000000000000     0.00000000000000
