CRYSTAL
PRIMVEC
 3.18138807967026 0.00000000000000 0.00000000000000
 0.00000000000000 3.18138807967026 0.00000000000000
 0.00000000000000 0.00000000000000 3.18138807967026
PRIMCOORD
 1 1
 103     0.00000000000000     0.00000000000000     0.00000000000000
