CRYSTAL
PRIMVEC
 -1.91069088886724 1.91069088886724 1.91069088886724
 1.91069088886724 -1.91069088886724 1.91069088886724
 1.91069088886724 1.91069088886724 -1.91069088886724
PRIMCOORD
 1 1
 71     0.00000000000000     0.00000000000000     0.00000000000000
