CRYSTAL
PRIMVEC
 -1.91069088885100 1.91069088885100 1.91069088885100
 1.91069088885100 -1.91069088885100 1.91069088885100
 1.91069088885100 1.91069088885100 -1.91069088885100
PRIMCOORD
 1 1
 71     0.00000000000000     0.00000000000000     0.00000000000000
