CRYSTAL
PRIMVEC
 0.00000000000000 2.38643471542127 2.38643471542127
 2.38643471542127 0.00000000000000 2.38643471542127
 2.38643471542127 2.38643471542127 0.00000000000000
PRIMCOORD
 1 1
 71     0.00000000000000     0.00000000000000     0.00000000000000
