CRYSTAL
PRIMVEC
 3.12901069985148 0.00000000000000 0.00000000000000
 0.00000000000000 3.12901069985148 0.00000000000000
 0.00000000000000 0.00000000000000 3.12901069985148
PRIMCOORD
 1 1
 71     0.00000000000000     0.00000000000000     0.00000000000000
