CRYSTAL
PRIMVEC
 3.12901066983547 0.00000000000000 0.00000000000000
 0.00000000000000 3.12901066983547 0.00000000000000
 0.00000000000000 0.00000000000000 3.12901066983547
PRIMCOORD
 1 1
 71     0.00000000000000     0.00000000000000     0.00000000000000
