CRYSTAL
PRIMVEC
 -1.94518578343022 1.94518578343022 1.94518578343022
 1.94518578343022 -1.94518578343022 1.94518578343022
 1.94518578343022 1.94518578343022 -1.94518578343022
PRIMCOORD
 1 1
 101     0.00000000000000     0.00000000000000     0.00000000000000
