CRYSTAL
PRIMVEC
 -1.94518725176990 1.94518725176990 1.94518725176990
 1.94518725176990 -1.94518725176990 1.94518725176990
 1.94518725176990 1.94518725176990 -1.94518725176990
PRIMCOORD
 1 1
 101     0.00000000000000     0.00000000000000     0.00000000000000
