CRYSTAL
PRIMVEC
 0.00000000000000 2.45130161528593 2.45130161528593
 2.45130161528593 0.00000000000000 2.45130161528593
 2.45130161528593 2.45130161528593 0.00000000000000
PRIMCOORD
 1 1
 101     0.00000000000000     0.00000000000000     0.00000000000000
