CRYSTAL
PRIMVEC
 0.00000000000000 2.45130027028700 2.45130027028700
 2.45130027028700 0.00000000000000 2.45130027028700
 2.45130027028700 2.45130027028700 0.00000000000000
PRIMCOORD
 1 1
 101     0.00000000000000     0.00000000000000     0.00000000000000
