CRYSTAL
PRIMVEC
 3.17932375170896 0.00000000000000 0.00000000000000
 0.00000000000000 3.17932375170896 0.00000000000000
 0.00000000000000 0.00000000000000 3.17932375170896
PRIMCOORD
 1 1
 101     0.00000000000000     0.00000000000000     0.00000000000000
