CRYSTAL
PRIMVEC
 3.17932583025763 0.00000000000000 0.00000000000000
 0.00000000000000 3.17932583025763 0.00000000000000
 0.00000000000000 0.00000000000000 3.17932583025763
PRIMCOORD
 1 1
 101     0.00000000000000     0.00000000000000     0.00000000000000
