CRYSTAL
PRIMVEC
 -1.77787358721410 1.77787358721410 1.77787358721410
 1.77787358721410 -1.77787358721410 1.77787358721410
 1.77787358721410 1.77787358721410 -1.77787358721410
PRIMCOORD
 1 1
 12     0.00000000000000     0.00000000000000     0.00000000000000
