CRYSTAL
PRIMVEC
 -1.77787358111382 1.77787358111382 1.77787358111382
 1.77787358111382 -1.77787358111382 1.77787358111382
 1.77787358111382 1.77787358111382 -1.77787358111382
PRIMCOORD
 1 1
 12     0.00000000000000     0.00000000000000     0.00000000000000
