CRYSTAL
PRIMVEC
 2.99644670583967 0.00000000000000 0.00000000000000
 0.00000000000000 2.99644670583967 0.00000000000000
 0.00000000000000 0.00000000000000 2.99644670583967
PRIMCOORD
 1 1
 12     0.00000000000000     0.00000000000000     0.00000000000000
