CRYSTAL
PRIMVEC
 2.99644673221217 0.00000000000000 0.00000000000000
 0.00000000000000 2.99644673221217 0.00000000000000
 0.00000000000000 0.00000000000000 2.99644673221217
PRIMCOORD
 1 1
 12     0.00000000000000     0.00000000000000     0.00000000000000
