CRYSTAL
PRIMVEC
 -1.37471398142630 1.37471398142630 1.37471398142630
 1.37471398142630 -1.37471398142630 1.37471398142630
 1.37471398142630 1.37471398142630 -1.37471398142630
PRIMCOORD
 1 1
 25     0.00000000000000     0.00000000000000     0.00000000000000
