CRYSTAL
PRIMVEC
 -1.37471397375568 1.37471397375568 1.37471397375568
 1.37471397375568 -1.37471397375568 1.37471397375568
 1.37471397375568 1.37471397375568 -1.37471397375568
PRIMCOORD
 1 1
 25     0.00000000000000     0.00000000000000     0.00000000000000
