CRYSTAL
PRIMVEC
 0.00000000000000 1.73035129630836 1.73035129630836
 1.73035129630836 0.00000000000000 1.73035129630836
 1.73035129630836 1.73035129630836 0.00000000000000
PRIMCOORD
 1 1
 25     0.00000000000000     0.00000000000000     0.00000000000000
