CRYSTAL
PRIMVEC
 2.25190948664117 0.00000000000000 0.00000000000000
 0.00000000000000 2.25190948664117 0.00000000000000
 0.00000000000000 0.00000000000000 2.25190948664117
PRIMCOORD
 1 1
 25     0.00000000000000     0.00000000000000     0.00000000000000
