CRYSTAL
PRIMVEC
 -1.56494714161631 1.56494714161631 1.56494714161631
 1.56494714161631 -1.56494714161631 1.56494714161631
 1.56494714161631 1.56494714161631 -1.56494714161631
PRIMCOORD
 1 1
 42     0.00000000000000     0.00000000000000     0.00000000000000
