CRYSTAL
PRIMVEC
 -1.56494713923811 1.56494713923811 1.56494713923811
 1.56494713923811 -1.56494713923811 1.56494713923811
 1.56494713923811 1.56494713923811 -1.56494713923811
PRIMCOORD
 1 1
 42     0.00000000000000     0.00000000000000     0.00000000000000
