CRYSTAL
PRIMVEC
 0.00000000000000 1.98066865704654 1.98066865704654
 1.98066865704654 0.00000000000000 1.98066865704654
 1.98066865704654 1.98066865704654 0.00000000000000
PRIMCOORD
 1 1
 42     0.00000000000000     0.00000000000000     0.00000000000000
