CRYSTAL
PRIMVEC
 2.57158088943746 0.00000000000000 0.00000000000000
 0.00000000000000 2.57158088943746 0.00000000000000
 0.00000000000000 0.00000000000000 2.57158088943746
PRIMCOORD
 1 1
 42     0.00000000000000     0.00000000000000     0.00000000000000
