CRYSTAL
PRIMVEC
 -1.19737831717561 1.19737831717561 1.19737831717561
 1.19737831717561 -1.19737831717561 1.19737831717561
 1.19737831717561 1.19737831717561 -1.19737831717561
PRIMCOORD
 1 1
  7     0.00000000000000     0.00000000000000     0.00000000000000
