CRYSTAL
PRIMVEC
 -1.19737831733411 1.19737831733411 1.19737831733411
 1.19737831733411 -1.19737831733411 1.19737831733411
 1.19737831733411 1.19737831733411 -1.19737831733411
PRIMCOORD
 1 1
  7     0.00000000000000     0.00000000000000     0.00000000000000
