CRYSTAL
PRIMVEC
 0.00000000000000 1.53438967631972 1.53438967631972
 1.53438967631972 0.00000000000000 1.53438967631972
 1.53438967631972 1.53438967631972 0.00000000000000
PRIMCOORD
 1 1
  7     0.00000000000000     0.00000000000000     0.00000000000000
