CRYSTAL
PRIMVEC
 0.00000000000000 1.53438967723701 1.53438967723701
 1.53438967723701 0.00000000000000 1.53438967723701
 1.53438967723701 1.53438967723701 0.00000000000000
PRIMCOORD
 1 1
  7     0.00000000000000     0.00000000000000     0.00000000000000
