CRYSTAL
PRIMVEC
 1.83254920107314 0.00000000000000 0.00000000000000
 0.00000000000000 1.83254920107314 0.00000000000000
 0.00000000000000 0.00000000000000 1.83254920107314
PRIMCOORD
 1 1
  7     0.00000000000000     0.00000000000000     0.00000000000000
