CRYSTAL
PRIMVEC
 1.83254887828321 0.00000000000000 0.00000000000000
 0.00000000000000 1.83254887828321 0.00000000000000
 0.00000000000000 0.00000000000000 1.83254887828321
PRIMCOORD
 1 1
  7     0.00000000000000     0.00000000000000     0.00000000000000
