CRYSTAL
PRIMVEC
 -2.08583154806739 2.08583154806739 2.08583154806739
 2.08583154806739 -2.08583154806739 2.08583154806739
 2.08583154806739 2.08583154806739 -2.08583154806739
PRIMCOORD
 1 1
 11     0.00000000000000     0.00000000000000     0.00000000000000
