CRYSTAL
PRIMVEC
 -2.08583154755617 2.08583154755617 2.08583154755617
 2.08583154755617 -2.08583154755617 2.08583154755617
 2.08583154755617 2.08583154755617 -2.08583154755617
PRIMCOORD
 1 1
 11     0.00000000000000     0.00000000000000     0.00000000000000
