CRYSTAL
PRIMVEC
 0.00000000000000 2.63000740847528 2.63000740847528
 2.63000740847528 0.00000000000000 2.63000740847528
 2.63000740847528 2.63000740847528 0.00000000000000
PRIMCOORD
 1 1
 11     0.00000000000000     0.00000000000000     0.00000000000000
