CRYSTAL
PRIMVEC
 3.38737612595603 0.00000000000000 0.00000000000000
 0.00000000000000 3.38737612595603 0.00000000000000
 0.00000000000000 0.00000000000000 3.38737612595603
PRIMCOORD
 1 1
 11     0.00000000000000     0.00000000000000     0.00000000000000
