CRYSTAL
PRIMVEC
 -1.63600533152409 1.63600533152409 1.63600533152409
 1.63600533152409 -1.63600533152409 1.63600533152409
 1.63600533152409 1.63600533152409 -1.63600533152409
PRIMCOORD
 1 1
 41     0.00000000000000     0.00000000000000     0.00000000000000
