CRYSTAL
PRIMVEC
 0.00000000000000 2.08524137660070 2.08524137660070
 2.08524137660070 0.00000000000000 2.08524137660070
 2.08524137660070 2.08524137660070 0.00000000000000
PRIMCOORD
 1 1
 41     0.00000000000000     0.00000000000000     0.00000000000000
