CRYSTAL
PRIMVEC
 2.68429775676117 0.00000000000000 0.00000000000000
 0.00000000000000 2.68429775676117 0.00000000000000
 0.00000000000000 0.00000000000000 2.68429775676117
PRIMCOORD
 1 1
 41     0.00000000000000     0.00000000000000     0.00000000000000
