CRYSTAL
PRIMVEC
 2.68429777921766 0.00000000000000 0.00000000000000
 0.00000000000000 2.68429777921766 0.00000000000000
 0.00000000000000 0.00000000000000 2.68429777921766
PRIMCOORD
 1 1
 41     0.00000000000000     0.00000000000000     0.00000000000000
