CRYSTAL
PRIMVEC
 -1.65941238470124 1.65941238470124 1.65941238470124
 1.65941238470124 -1.65941238470124 1.65941238470124
 1.65941238470124 1.65941238470124 -1.65941238470124
PRIMCOORD
 1 1
 60     0.00000000000000     0.00000000000000     0.00000000000000
