CRYSTAL
PRIMVEC
 -1.65941237822068 1.65941237822068 1.65941237822068
 1.65941237822068 -1.65941237822068 1.65941237822068
 1.65941237822068 1.65941237822068 -1.65941237822068
PRIMCOORD
 1 1
 60     0.00000000000000     0.00000000000000     0.00000000000000
