CRYSTAL
PRIMVEC
 0.00000000000000 2.15999690583138 2.15999690583138
 2.15999690583138 0.00000000000000 2.15999690583138
 2.15999690583138 2.15999690583138 0.00000000000000
PRIMCOORD
 1 1
 60     0.00000000000000     0.00000000000000     0.00000000000000
