CRYSTAL
PRIMVEC
 2.56989317165430 0.00000000000000 0.00000000000000
 0.00000000000000 2.56989317165430 0.00000000000000
 0.00000000000000 0.00000000000000 2.56989317165430
PRIMCOORD
 1 1
 60     0.00000000000000     0.00000000000000     0.00000000000000
