CRYSTAL
PRIMVEC
 2.56989317658666 0.00000000000000 0.00000000000000
 0.00000000000000 2.56989317658666 0.00000000000000
 0.00000000000000 0.00000000000000 2.56989317658666
PRIMCOORD
 1 1
 60     0.00000000000000     0.00000000000000     0.00000000000000
