CRYSTAL
PRIMVEC
 -1.87305462680675 1.87305462680675 1.87305462680675
 1.87305462680675 -1.87305462680675 1.87305462680675
 1.87305462680675 1.87305462680675 -1.87305462680675
PRIMCOORD
 1 1
 10     0.00000000000000     0.00000000000000     0.00000000000000
