CRYSTAL
PRIMVEC
 -1.87305484582081 1.87305484582081 1.87305484582081
 1.87305484582081 -1.87305484582081 1.87305484582081
 1.87305484582081 1.87305484582081 -1.87305484582081
PRIMCOORD
 1 1
 10     0.00000000000000     0.00000000000000     0.00000000000000
