CRYSTAL
PRIMVEC
 0.00000000000000 2.34440316321292 2.34440316321292
 2.34440316321292 0.00000000000000 2.34440316321292
 2.34440316321292 2.34440316321292 0.00000000000000
PRIMCOORD
 1 1
 10     0.00000000000000     0.00000000000000     0.00000000000000
