CRYSTAL
PRIMVEC
 3.17067126598162 0.00000000000000 0.00000000000000
 0.00000000000000 3.17067126598162 0.00000000000000
 0.00000000000000 0.00000000000000 3.17067126598162
PRIMCOORD
 1 1
 10     0.00000000000000     0.00000000000000     0.00000000000000
