CRYSTAL
PRIMVEC
 3.17067124226896 0.00000000000000 0.00000000000000
 0.00000000000000 3.17067124226896 0.00000000000000
 0.00000000000000 0.00000000000000 3.17067124226896
PRIMCOORD
 1 1
 10     0.00000000000000     0.00000000000000     0.00000000000000
