CRYSTAL
PRIMVEC
 -1.37462180988835 1.37462180988835 1.37462180988835
 1.37462180988835 -1.37462180988835 1.37462180988835
 1.37462180988835 1.37462180988835 -1.37462180988835
PRIMCOORD
 1 1
 28     0.00000000000000     0.00000000000000     0.00000000000000
