CRYSTAL
PRIMVEC
 0.00000000000000 1.72885567849068 1.72885567849068
 1.72885567849068 0.00000000000000 1.72885567849068
 1.72885567849068 1.72885567849068 0.00000000000000
PRIMCOORD
 1 1
 28     0.00000000000000     0.00000000000000     0.00000000000000
