CRYSTAL
PRIMVEC
 2.28513387910617 0.00000000000000 0.00000000000000
 0.00000000000000 2.28513387910617 0.00000000000000
 0.00000000000000 0.00000000000000 2.28513387910617
PRIMCOORD
 1 1
 28     0.00000000000000     0.00000000000000     0.00000000000000
