CRYSTAL
PRIMVEC
 2.28513388012074 0.00000000000000 0.00000000000000
 0.00000000000000 2.28513388012074 0.00000000000000
 0.00000000000000 0.00000000000000 2.28513388012074
PRIMCOORD
 1 1
 28     0.00000000000000     0.00000000000000     0.00000000000000
