CRYSTAL
PRIMVEC
 -2.05293756740596 2.05293756740596 2.05293756740596
 2.05293756740596 -2.05293756740596 2.05293756740596
 2.05293756740596 2.05293756740596 -2.05293756740596
PRIMCOORD
 1 1
 102     0.00000000000000     0.00000000000000     0.00000000000000
