CRYSTAL
PRIMVEC
 -2.05293799908970 2.05293799908970 2.05293799908970
 2.05293799908970 -2.05293799908970 2.05293799908970
 2.05293799908970 2.05293799908970 -2.05293799908970
PRIMCOORD
 1 1
 102     0.00000000000000     0.00000000000000     0.00000000000000
