CRYSTAL
PRIMVEC
 0.00000000000000 2.60373873589313 2.60373873589313
 2.60373873589313 0.00000000000000 2.60373873589313
 2.60373873589313 2.60373873589313 0.00000000000000
PRIMCOORD
 1 1
 102     0.00000000000000     0.00000000000000     0.00000000000000
