CRYSTAL
PRIMVEC
 0.00000000000000 2.60373816521615 2.60373816521615
 2.60373816521615 0.00000000000000 2.60373816521615
 2.60373816521615 2.60373816521615 0.00000000000000
PRIMCOORD
 1 1
 102     0.00000000000000     0.00000000000000     0.00000000000000
