CRYSTAL
PRIMVEC
 3.40233973119058 0.00000000000000 0.00000000000000
 0.00000000000000 3.40233973119058 0.00000000000000
 0.00000000000000 0.00000000000000 3.40233973119058
PRIMCOORD
 1 1
 102     0.00000000000000     0.00000000000000     0.00000000000000
