CRYSTAL
PRIMVEC
 3.40234093455888 0.00000000000000 0.00000000000000
 0.00000000000000 3.40234093455888 0.00000000000000
 0.00000000000000 0.00000000000000 3.40234093455888
PRIMCOORD
 1 1
 102     0.00000000000000     0.00000000000000     0.00000000000000
