CRYSTAL
PRIMVEC
 -1.61621828412179 1.61621828412179 1.61621828412179
 1.61621828412179 -1.61621828412179 1.61621828412179
 1.61621828412179 1.61621828412179 -1.61621828412179
PRIMCOORD
 1 1
 93     0.00000000000000     0.00000000000000     0.00000000000000
