CRYSTAL
PRIMVEC
 -1.61621827430926 1.61621827430926 1.61621827430926
 1.61621827430926 -1.61621827430926 1.61621827430926
 1.61621827430926 1.61621827430926 -1.61621827430926
PRIMCOORD
 1 1
 93     0.00000000000000     0.00000000000000     0.00000000000000
