CRYSTAL
PRIMVEC
 0.00000000000000 2.08811203951864 2.08811203951864
 2.08811203951864 0.00000000000000 2.08811203951864
 2.08811203951864 2.08811203951864 0.00000000000000
PRIMCOORD
 1 1
 93     0.00000000000000     0.00000000000000     0.00000000000000
