CRYSTAL
PRIMVEC
 2.54641866498890 0.00000000000000 0.00000000000000
 0.00000000000000 2.54641866498890 0.00000000000000
 0.00000000000000 0.00000000000000 2.54641866498890
PRIMCOORD
 1 1
 93     0.00000000000000     0.00000000000000     0.00000000000000
