CRYSTAL
PRIMVEC
 -1.22284894149401 1.22284894149401 1.22284894149401
 1.22284894149401 -1.22284894149401 1.22284894149401
 1.22284894149401 1.22284894149401 -1.22284894149401
PRIMCOORD
 1 1
  8     0.00000000000000     0.00000000000000     0.00000000000000
