CRYSTAL
PRIMVEC
 -1.22284894096815 1.22284894096815 1.22284894096815
 1.22284894096815 -1.22284894096815 1.22284894096815
 1.22284894096815 1.22284894096815 -1.22284894096815
PRIMCOORD
 1 1
  8     0.00000000000000     0.00000000000000     0.00000000000000
