CRYSTAL
PRIMVEC
 0.00000000000000 1.55330064951977 1.55330064951977
 1.55330064951977 0.00000000000000 1.55330064951977
 1.55330064951977 1.55330064951977 0.00000000000000
PRIMCOORD
 1 1
  8     0.00000000000000     0.00000000000000     0.00000000000000
