CRYSTAL
PRIMVEC
 1.96185964698531 0.00000000000000 0.00000000000000
 0.00000000000000 1.96185964698531 0.00000000000000
 0.00000000000000 0.00000000000000 1.96185964698531
PRIMCOORD
 1 1
  8     0.00000000000000     0.00000000000000     0.00000000000000
