CRYSTAL
PRIMVEC
 -1.53113617709827 1.53113617709827 1.53113617709827
 1.53113617709827 -1.53113617709827 1.53113617709827
 1.53113617709827 1.53113617709827 -1.53113617709827
PRIMCOORD
 1 1
 76     0.00000000000000     0.00000000000000     0.00000000000000
