CRYSTAL
PRIMVEC
 -1.53113617866766 1.53113617866766 1.53113617866766
 1.53113617866766 -1.53113617866766 1.53113617866766
 1.53113617866766 1.53113617866766 -1.53113617866766
PRIMCOORD
 1 1
 76     0.00000000000000     0.00000000000000     0.00000000000000
