CRYSTAL
PRIMVEC
 0.00000000000000 1.91061161654022 1.91061161654022
 1.91061161654022 0.00000000000000 1.91061161654022
 1.91061161654022 1.91061161654022 0.00000000000000
PRIMCOORD
 1 1
 76     0.00000000000000     0.00000000000000     0.00000000000000
