CRYSTAL
PRIMVEC
 2.53081338008391 0.00000000000000 0.00000000000000
 0.00000000000000 2.53081338008391 0.00000000000000
 0.00000000000000 0.00000000000000 2.53081338008391
PRIMCOORD
 1 1
 76     0.00000000000000     0.00000000000000     0.00000000000000
