CRYSTAL
PRIMVEC
 2.53081336625453 0.00000000000000 0.00000000000000
 0.00000000000000 2.53081336625453 0.00000000000000
 0.00000000000000 0.00000000000000 2.53081336625453
PRIMCOORD
 1 1
 76     0.00000000000000     0.00000000000000     0.00000000000000
