CRYSTAL
PRIMVEC
 -1.50669494783809 1.50669494783809 1.50669494783809
 1.50669494783809 -1.50669494783809 1.50669494783809
 1.50669494783809 1.50669494783809 -1.50669494783809
PRIMCOORD
 1 1
 15     0.00000000000000     0.00000000000000     0.00000000000000
