CRYSTAL
PRIMVEC
 -1.50669494591516 1.50669494591516 1.50669494591516
 1.50669494591516 -1.50669494591516 1.50669494591516
 1.50669494591516 1.50669494591516 -1.50669494591516
PRIMCOORD
 1 1
 15     0.00000000000000     0.00000000000000     0.00000000000000
