CRYSTAL
PRIMVEC
 0.00000000000000 1.91209589010755 1.91209589010755
 1.91209589010755 0.00000000000000 1.91209589010755
 1.91209589010755 1.91209589010755 0.00000000000000
PRIMCOORD
 1 1
 15     0.00000000000000     0.00000000000000     0.00000000000000
