CRYSTAL
PRIMVEC
 0.00000000000000 1.91209588100283 1.91209588100283
 1.91209588100283 0.00000000000000 1.91209588100283
 1.91209588100283 1.91209588100283 0.00000000000000
PRIMCOORD
 1 1
 15     0.00000000000000     0.00000000000000     0.00000000000000
