CRYSTAL
PRIMVEC
 2.42192112136324 0.00000000000000 0.00000000000000
 0.00000000000000 2.42192112136324 0.00000000000000
 0.00000000000000 0.00000000000000 2.42192112136324
PRIMCOORD
 1 1
 15     0.00000000000000     0.00000000000000     0.00000000000000
