CRYSTAL
PRIMVEC
 -1.80218838887722 1.80218838887722 1.80218838887722
 1.80218838887722 -1.80218838887722 1.80218838887722
 1.80218838887722 1.80218838887722 -1.80218838887722
PRIMCOORD
 1 1
 91     0.00000000000000     0.00000000000000     0.00000000000000
