CRYSTAL
PRIMVEC
 -1.80218830133196 1.80218830133196 1.80218830133196
 1.80218830133196 -1.80218830133196 1.80218830133196
 1.80218830133196 1.80218830133196 -1.80218830133196
PRIMCOORD
 1 1
 91     0.00000000000000     0.00000000000000     0.00000000000000
