CRYSTAL
PRIMVEC
 0.00000000000000 2.28867513866626 2.28867513866626
 2.28867513866626 0.00000000000000 2.28867513866626
 2.28867513866626 2.28867513866626 0.00000000000000
PRIMCOORD
 1 1
 91     0.00000000000000     0.00000000000000     0.00000000000000
