CRYSTAL
PRIMVEC
 2.82296253934979 0.00000000000000 0.00000000000000
 0.00000000000000 2.82296253934979 0.00000000000000
 0.00000000000000 0.00000000000000 2.82296253934979
PRIMCOORD
 1 1
 91     0.00000000000000     0.00000000000000     0.00000000000000
