CRYSTAL
PRIMVEC
 2.82296391223986 0.00000000000000 0.00000000000000
 0.00000000000000 2.82296391223986 0.00000000000000
 0.00000000000000 0.00000000000000 2.82296391223986
PRIMCOORD
 1 1
 91     0.00000000000000     0.00000000000000     0.00000000000000
