CRYSTAL
PRIMVEC
 -1.95625241132328 1.95625241132328 1.95625241132328
 1.95625241132328 -1.95625241132328 1.95625241132328
 1.95625241132328 1.95625241132328 -1.95625241132328
PRIMCOORD
 1 1
 82     0.00000000000000     0.00000000000000     0.00000000000000
