CRYSTAL
PRIMVEC
 -1.95625241483884 1.95625241483884 1.95625241483884
 1.95625241483884 -1.95625241483884 1.95625241483884
 1.95625241483884 1.95625241483884 -1.95625241483884
PRIMCOORD
 1 1
 82     0.00000000000000     0.00000000000000     0.00000000000000
