CRYSTAL
PRIMVEC
 0.00000000000000 2.46747153321499 2.46747153321499
 2.46747153321499 0.00000000000000 2.46747153321499
 2.46747153321499 2.46747153321499 0.00000000000000
PRIMCOORD
 1 1
 82     0.00000000000000     0.00000000000000     0.00000000000000
