CRYSTAL
PRIMVEC
 3.18422657154796 0.00000000000000 0.00000000000000
 0.00000000000000 3.18422657154796 0.00000000000000
 0.00000000000000 0.00000000000000 3.18422657154796
PRIMCOORD
 1 1
 82     0.00000000000000     0.00000000000000     0.00000000000000
