CRYSTAL
PRIMVEC
 -1.54207417356143 1.54207417356143 1.54207417356143
 1.54207417356143 -1.54207417356143 1.54207417356143
 1.54207417356143 1.54207417356143 -1.54207417356143
PRIMCOORD
 1 1
 46     0.00000000000000     0.00000000000000     0.00000000000000
