CRYSTAL
PRIMVEC
 -1.54207417479159 1.54207417479159 1.54207417479159
 1.54207417479159 -1.54207417479159 1.54207417479159
 1.54207417479159 1.54207417479159 -1.54207417479159
PRIMCOORD
 1 1
 46     0.00000000000000     0.00000000000000     0.00000000000000
