CRYSTAL
PRIMVEC
 0.00000000000000 1.93795870890002 1.93795870890002
 1.93795870890002 0.00000000000000 1.93795870890002
 1.93795870890002 1.93795870890002 0.00000000000000
PRIMCOORD
 1 1
 46     0.00000000000000     0.00000000000000     0.00000000000000
