CRYSTAL
PRIMVEC
 0.00000000000000 1.93795870994262 1.93795870994262
 1.93795870994262 0.00000000000000 1.93795870994262
 1.93795870994262 1.93795870994262 0.00000000000000
PRIMCOORD
 1 1
 46     0.00000000000000     0.00000000000000     0.00000000000000
