CRYSTAL
PRIMVEC
 2.56579780577383 0.00000000000000 0.00000000000000
 0.00000000000000 2.56579780577383 0.00000000000000
 0.00000000000000 0.00000000000000 2.56579780577383
PRIMCOORD
 1 1
 46     0.00000000000000     0.00000000000000     0.00000000000000
