CRYSTAL
PRIMVEC
 2.56579780240989 0.00000000000000 0.00000000000000
 0.00000000000000 2.56579780240989 0.00000000000000
 0.00000000000000 0.00000000000000 2.56579780240989
PRIMCOORD
 1 1
 46     0.00000000000000     0.00000000000000     0.00000000000000
