CRYSTAL
PRIMVEC
 -1.63065973233797 1.63065973233797 1.63065973233797
 1.63065973233797 -1.63065973233797 1.63065973233797
 1.63065973233797 1.63065973233797 -1.63065973233797
PRIMCOORD
 1 1
 61     0.00000000000000     0.00000000000000     0.00000000000000
