CRYSTAL
PRIMVEC
 -1.63065974040333 1.63065974040333 1.63065974040333
 1.63065974040333 -1.63065974040333 1.63065974040333
 1.63065974040333 1.63065974040333 -1.63065974040333
PRIMCOORD
 1 1
 61     0.00000000000000     0.00000000000000     0.00000000000000
