CRYSTAL
PRIMVEC
 2.52843606676208 0.00000000000000 0.00000000000000
 0.00000000000000 2.52843606676208 0.00000000000000
 0.00000000000000 0.00000000000000 2.52843606676208
PRIMCOORD
 1 1
 61     0.00000000000000     0.00000000000000     0.00000000000000
