CRYSTAL
PRIMVEC
 -1.98222083651996 1.98222083651996 1.98222083651996
 1.98222083651996 -1.98222083651996 1.98222083651996
 1.98222083651996 1.98222083651996 -1.98222083651996
PRIMCOORD
 1 1
 84     0.00000000000000     0.00000000000000     0.00000000000000
