CRYSTAL
PRIMVEC
 -1.98222078096022 1.98222078096022 1.98222078096022
 1.98222078096022 -1.98222078096022 1.98222078096022
 1.98222078096022 1.98222078096022 -1.98222078096022
PRIMCOORD
 1 1
 84     0.00000000000000     0.00000000000000     0.00000000000000
