CRYSTAL
PRIMVEC
 0.00000000000000 2.48944949614254 2.48944949614254
 2.48944949614254 0.00000000000000 2.48944949614254
 2.48944949614254 2.48944949614254 0.00000000000000
PRIMCOORD
 1 1
 84     0.00000000000000     0.00000000000000     0.00000000000000
