CRYSTAL
PRIMVEC
 3.29696324967929 0.00000000000000 0.00000000000000
 0.00000000000000 3.29696324967929 0.00000000000000
 0.00000000000000 0.00000000000000 3.29696324967929
PRIMCOORD
 1 1
 84     0.00000000000000     0.00000000000000     0.00000000000000
