CRYSTAL
PRIMVEC
 3.29696325781139 0.00000000000000 0.00000000000000
 0.00000000000000 3.29696325781139 0.00000000000000
 0.00000000000000 0.00000000000000 3.29696325781139
PRIMCOORD
 1 1
 84     0.00000000000000     0.00000000000000     0.00000000000000
