CRYSTAL
PRIMVEC
 -1.71744074090723 1.71744074090723 1.71744074090723
 1.71744074090723 -1.71744074090723 1.71744074090723
 1.71744074090723 1.71744074090723 -1.71744074090723
PRIMCOORD
 1 1
 59     0.00000000000000     0.00000000000000     0.00000000000000
