CRYSTAL
PRIMVEC
 -1.71744074245098 1.71744074245098 1.71744074245098
 1.71744074245098 -1.71744074245098 1.71744074245098
 1.71744074245098 1.71744074245098 -1.71744074245098
PRIMCOORD
 1 1
 59     0.00000000000000     0.00000000000000     0.00000000000000
