CRYSTAL
PRIMVEC
 0.00000000000000 2.21064922400450 2.21064922400450
 2.21064922400450 0.00000000000000 2.21064922400450
 2.21064922400450 2.21064922400450 0.00000000000000
PRIMCOORD
 1 1
 59     0.00000000000000     0.00000000000000     0.00000000000000
