CRYSTAL
PRIMVEC
 2.66105929512293 0.00000000000000 0.00000000000000
 0.00000000000000 2.66105929512293 0.00000000000000
 0.00000000000000 0.00000000000000 2.66105929512293
PRIMCOORD
 1 1
 59     0.00000000000000     0.00000000000000     0.00000000000000
