CRYSTAL
PRIMVEC
 2.66105936142868 0.00000000000000 0.00000000000000
 0.00000000000000 2.66105936142868 0.00000000000000
 0.00000000000000 0.00000000000000 2.66105936142868
PRIMCOORD
 1 1
 59     0.00000000000000     0.00000000000000     0.00000000000000
