CRYSTAL
PRIMVEC
 -1.56102812827509 1.56102812827509 1.56102812827509
 1.56102812827509 -1.56102812827509 1.56102812827509
 1.56102812827509 1.56102812827509 -1.56102812827509
PRIMCOORD
 1 1
 78     0.00000000000000     0.00000000000000     0.00000000000000
