CRYSTAL
PRIMVEC
 -1.56102812744203 1.56102812744203 1.56102812744203
 1.56102812744203 -1.56102812744203 1.56102812744203
 1.56102812744203 1.56102812744203 -1.56102812744203
PRIMCOORD
 1 1
 78     0.00000000000000     0.00000000000000     0.00000000000000
