CRYSTAL
PRIMVEC
 0.00000000000000 1.95955567320489 1.95955567320489
 1.95955567320489 0.00000000000000 1.95955567320489
 1.95955567320489 1.95955567320489 0.00000000000000
PRIMCOORD
 1 1
 78     0.00000000000000     0.00000000000000     0.00000000000000
