CRYSTAL
PRIMVEC
 2.58765485688777 0.00000000000000 0.00000000000000
 0.00000000000000 2.58765485688777 0.00000000000000
 0.00000000000000 0.00000000000000 2.58765485688777
PRIMCOORD
 1 1
 78     0.00000000000000     0.00000000000000     0.00000000000000
