CRYSTAL
PRIMVEC
 2.58765485488636 0.00000000000000 0.00000000000000
 0.00000000000000 2.58765485488636 0.00000000000000
 0.00000000000000 0.00000000000000 2.58765485488636
PRIMCOORD
 1 1
 78     0.00000000000000     0.00000000000000     0.00000000000000
