CRYSTAL
PRIMVEC
 -1.57821931177851 1.57821931177851 1.57821931177851
 1.57821931177851 -1.57821931177851 1.57821931177851
 1.57821931177851 1.57821931177851 -1.57821931177851
PRIMCOORD
 1 1
 94     0.00000000000000     0.00000000000000     0.00000000000000
