CRYSTAL
PRIMVEC
 -1.57821931777166 1.57821931777166 1.57821931777166
 1.57821931777166 -1.57821931777166 1.57821931777166
 1.57821931777166 1.57821931777166 -1.57821931777166
PRIMCOORD
 1 1
 94     0.00000000000000     0.00000000000000     0.00000000000000
