CRYSTAL
PRIMVEC
 0.00000000000000 2.03185194817566 2.03185194817566
 2.03185194817566 0.00000000000000 2.03185194817566
 2.03185194817566 2.03185194817566 0.00000000000000
PRIMCOORD
 1 1
 94     0.00000000000000     0.00000000000000     0.00000000000000
