CRYSTAL
PRIMVEC
 2.49952218902118 0.00000000000000 0.00000000000000
 0.00000000000000 2.49952218902118 0.00000000000000
 0.00000000000000 0.00000000000000 2.49952218902118
PRIMCOORD
 1 1
 94     0.00000000000000     0.00000000000000     0.00000000000000
