CRYSTAL
PRIMVEC
 -2.53022235602919 2.53022235602919 2.53022235602919
 2.53022235602919 -2.53022235602919 2.53022235602919
 2.53022235602919 2.53022235602919 -2.53022235602919
PRIMCOORD
 1 1
 88     0.00000000000000     0.00000000000000     0.00000000000000
