CRYSTAL
PRIMVEC
 -2.53022230975464 2.53022230975464 2.53022230975464
 2.53022230975464 -2.53022230975464 2.53022230975464
 2.53022230975464 2.53022230975464 -2.53022230975464
PRIMCOORD
 1 1
 88     0.00000000000000     0.00000000000000     0.00000000000000
