CRYSTAL
PRIMVEC
 0.00000000000000 3.19246201032204 3.19246201032204
 3.19246201032204 0.00000000000000 3.19246201032204
 3.19246201032204 3.19246201032204 0.00000000000000
PRIMCOORD
 1 1
 88     0.00000000000000     0.00000000000000     0.00000000000000
