CRYSTAL
PRIMVEC
 0.00000000000000 3.19246195905208 3.19246195905208
 3.19246195905208 0.00000000000000 3.19246195905208
 3.19246195905208 3.19246195905208 0.00000000000000
PRIMCOORD
 1 1
 88     0.00000000000000     0.00000000000000     0.00000000000000
