CRYSTAL
PRIMVEC
 4.07286209867881 0.00000000000000 0.00000000000000
 0.00000000000000 4.07286209867881 0.00000000000000
 0.00000000000000 0.00000000000000 4.07286209867881
PRIMCOORD
 1 1
 88     0.00000000000000     0.00000000000000     0.00000000000000
