CRYSTAL
PRIMVEC
 4.07286197451046 0.00000000000000 0.00000000000000
 0.00000000000000 4.07286197451046 0.00000000000000
 0.00000000000000 0.00000000000000 4.07286197451046
PRIMCOORD
 1 1
 88     0.00000000000000     0.00000000000000     0.00000000000000
