CRYSTAL
PRIMVEC
 -2.78440006117889 2.78440006117889 2.78440006117889
 2.78440006117889 -2.78440006117889 2.78440006117889
 2.78440006117889 2.78440006117889 -2.78440006117889
PRIMCOORD
 1 1
 37     0.00000000000000     0.00000000000000     0.00000000000000
