CRYSTAL
PRIMVEC
 -2.78440006739642 2.78440006739642 2.78440006739642
 2.78440006739642 -2.78440006739642 2.78440006739642
 2.78440006739642 2.78440006739642 -2.78440006739642
PRIMCOORD
 1 1
 37     0.00000000000000     0.00000000000000     0.00000000000000
