CRYSTAL
PRIMVEC
 4.53686275728489 0.00000000000000 0.00000000000000
 0.00000000000000 4.53686275728489 0.00000000000000
 0.00000000000000 0.00000000000000 4.53686275728489
PRIMCOORD
 1 1
 37     0.00000000000000     0.00000000000000     0.00000000000000
