CRYSTAL
PRIMVEC
 4.53686276554225 0.00000000000000 0.00000000000000
 0.00000000000000 4.53686276554225 0.00000000000000
 0.00000000000000 0.00000000000000 4.53686276554225
PRIMCOORD
 1 1
 37     0.00000000000000     0.00000000000000     0.00000000000000
