CRYSTAL
PRIMVEC
 -1.54309477059334 1.54309477059334 1.54309477059334
 1.54309477059334 -1.54309477059334 1.54309477059334
 1.54309477059334 1.54309477059334 -1.54309477059334
PRIMCOORD
 1 1
 75     0.00000000000000     0.00000000000000     0.00000000000000
