CRYSTAL
PRIMVEC
 -1.54309478346389 1.54309478346389 1.54309478346389
 1.54309478346389 -1.54309478346389 1.54309478346389
 1.54309478346389 1.54309478346389 -1.54309478346389
PRIMCOORD
 1 1
 75     0.00000000000000     0.00000000000000     0.00000000000000
