CRYSTAL
PRIMVEC
 0.00000000000000 1.94060618361212 1.94060618361212
 1.94060618361212 0.00000000000000 1.94060618361212
 1.94060618361212 1.94060618361212 0.00000000000000
PRIMCOORD
 1 1
 75     0.00000000000000     0.00000000000000     0.00000000000000
