CRYSTAL
PRIMVEC
 2.55304372400871 0.00000000000000 0.00000000000000
 0.00000000000000 2.55304372400871 0.00000000000000
 0.00000000000000 0.00000000000000 2.55304372400871
PRIMCOORD
 1 1
 75     0.00000000000000     0.00000000000000     0.00000000000000
