CRYSTAL
PRIMVEC
 2.55304371734816 0.00000000000000 0.00000000000000
 0.00000000000000 2.55304371734816 0.00000000000000
 0.00000000000000 0.00000000000000 2.55304371734816
PRIMCOORD
 1 1
 75     0.00000000000000     0.00000000000000     0.00000000000000
