CRYSTAL
PRIMVEC
 -1.51456173831905 1.51456173831905 1.51456173831905
 1.51456173831905 -1.51456173831905 1.51456173831905
 1.51456173831905 1.51456173831905 -1.51456173831905
PRIMCOORD
 1 1
 45     0.00000000000000     0.00000000000000     0.00000000000000
