CRYSTAL
PRIMVEC
 -1.51456173591527 1.51456173591527 1.51456173591527
 1.51456173591527 -1.51456173591527 1.51456173591527
 1.51456173591527 1.51456173591527 -1.51456173591527
PRIMCOORD
 1 1
 45     0.00000000000000     0.00000000000000     0.00000000000000
