CRYSTAL
PRIMVEC
 2.49942057798035 0.00000000000000 0.00000000000000
 0.00000000000000 2.49942057798035 0.00000000000000
 0.00000000000000 0.00000000000000 2.49942057798035
PRIMCOORD
 1 1
 45     0.00000000000000     0.00000000000000     0.00000000000000
