CRYSTAL
PRIMVEC
 -2.60064617816467 2.60064617816467 2.60064617816467
 2.60064617816467 -2.60064617816467 2.60064617816467
 2.60064617816467 2.60064617816467 -2.60064617816467
PRIMCOORD
 1 1
 86     0.00000000000000     0.00000000000000     0.00000000000000
