CRYSTAL
PRIMVEC
 -2.60064619785706 2.60064619785706 2.60064619785706
 2.60064619785706 -2.60064619785706 2.60064619785706
 2.60064619785706 2.60064619785706 -2.60064619785706
PRIMCOORD
 1 1
 86     0.00000000000000     0.00000000000000     0.00000000000000
