CRYSTAL
PRIMVEC
 0.00000000000000 3.23400375532757 3.23400375532757
 3.23400375532757 0.00000000000000 3.23400375532757
 3.23400375532757 3.23400375532757 0.00000000000000
PRIMCOORD
 1 1
 86     0.00000000000000     0.00000000000000     0.00000000000000
