CRYSTAL
PRIMVEC
 4.57479842926441 0.00000000000000 0.00000000000000
 0.00000000000000 4.57479842926441 0.00000000000000
 0.00000000000000 0.00000000000000 4.57479842926441
PRIMCOORD
 1 1
 86     0.00000000000000     0.00000000000000     0.00000000000000
