CRYSTAL
PRIMVEC
 4.57479838170975 0.00000000000000 0.00000000000000
 0.00000000000000 4.57479838170975 0.00000000000000
 0.00000000000000 0.00000000000000 4.57479838170975
PRIMCOORD
 1 1
 86     0.00000000000000     0.00000000000000     0.00000000000000
