CRYSTAL
PRIMVEC
 -1.50925947828677 1.50925947828677 1.50925947828677
 1.50925947828677 -1.50925947828677 1.50925947828677
 1.50925947828677 1.50925947828677 -1.50925947828677
PRIMCOORD
 1 1
 44     0.00000000000000     0.00000000000000     0.00000000000000
