CRYSTAL
PRIMVEC
 0.00000000000000 1.88448421768354 1.88448421768354
 1.88448421768354 0.00000000000000 1.88448421768354
 1.88448421768354 1.88448421768354 0.00000000000000
PRIMCOORD
 1 1
 44     0.00000000000000     0.00000000000000     0.00000000000000
