CRYSTAL
PRIMVEC
 2.48038211698285 0.00000000000000 0.00000000000000
 0.00000000000000 2.48038211698285 0.00000000000000
 0.00000000000000 0.00000000000000 2.48038211698285
PRIMCOORD
 1 1
 44     0.00000000000000     0.00000000000000     0.00000000000000
