CRYSTAL
PRIMVEC
 2.48038211253380 0.00000000000000 0.00000000000000
 0.00000000000000 2.48038211253380 0.00000000000000
 0.00000000000000 0.00000000000000 2.48038211253380
PRIMCOORD
 1 1
 44     0.00000000000000     0.00000000000000     0.00000000000000
