CRYSTAL
PRIMVEC
 -1.54915679389226 1.54915679389226 1.54915679389226
 1.54915679389226 -1.54915679389226 1.54915679389226
 1.54915679389226 1.54915679389226 -1.54915679389226
PRIMCOORD
 1 1
 16     0.00000000000000     0.00000000000000     0.00000000000000
