CRYSTAL
PRIMVEC
 -1.54915682885324 1.54915682885324 1.54915682885324
 1.54915682885324 -1.54915682885324 1.54915682885324
 1.54915682885324 1.54915682885324 -1.54915682885324
PRIMCOORD
 1 1
 16     0.00000000000000     0.00000000000000     0.00000000000000
