CRYSTAL
PRIMVEC
 0.00000000000000 1.95452168557755 1.95452168557755
 1.95452168557755 0.00000000000000 1.95452168557755
 1.95452168557755 1.95452168557755 0.00000000000000
PRIMCOORD
 1 1
 16     0.00000000000000     0.00000000000000     0.00000000000000
