CRYSTAL
PRIMVEC
 2.54115327348821 0.00000000000000 0.00000000000000
 0.00000000000000 2.54115327348821 0.00000000000000
 0.00000000000000 0.00000000000000 2.54115327348821
PRIMCOORD
 1 1
 16     0.00000000000000     0.00000000000000     0.00000000000000
