CRYSTAL
PRIMVEC
 -1.86498609211528 1.86498609211528 1.86498609211528
 1.86498609211528 -1.86498609211528 1.86498609211528
 1.86498609211528 1.86498609211528 -1.86498609211528
PRIMCOORD
 1 1
 51     0.00000000000000     0.00000000000000     0.00000000000000
