CRYSTAL
PRIMVEC
 -1.86498609524490 1.86498609524490 1.86498609524490
 1.86498609524490 -1.86498609524490 1.86498609524490
 1.86498609524490 1.86498609524490 -1.86498609524490
PRIMCOORD
 1 1
 51     0.00000000000000     0.00000000000000     0.00000000000000
