CRYSTAL
PRIMVEC
 0.00000000000000 2.35695456988873 2.35695456988873
 2.35695456988873 0.00000000000000 2.35695456988873
 2.35695456988873 2.35695456988873 0.00000000000000
PRIMCOORD
 1 1
 51     0.00000000000000     0.00000000000000     0.00000000000000
