CRYSTAL
PRIMVEC
 0.00000000000000 2.35695455752925 2.35695455752925
 2.35695455752925 0.00000000000000 2.35695455752925
 2.35695455752925 2.35695455752925 0.00000000000000
PRIMCOORD
 1 1
 51     0.00000000000000     0.00000000000000     0.00000000000000
