CRYSTAL
PRIMVEC
 3.06102751762122 0.00000000000000 0.00000000000000
 0.00000000000000 3.06102751762122 0.00000000000000
 0.00000000000000 0.00000000000000 3.06102751762122
PRIMCOORD
 1 1
 51     0.00000000000000     0.00000000000000     0.00000000000000
