CRYSTAL
PRIMVEC
 -1.81415114754213 1.81415114754213 1.81415114754213
 1.81415114754213 -1.81415114754213 1.81415114754213
 1.81415114754213 1.81415114754213 -1.81415114754213
PRIMCOORD
 1 1
 21     0.00000000000000     0.00000000000000     0.00000000000000
