CRYSTAL
PRIMVEC
 -1.81415114701859 1.81415114701859 1.81415114701859
 1.81415114701859 -1.81415114701859 1.81415114701859
 1.81415114701859 1.81415114701859 -1.81415114701859
PRIMCOORD
 1 1
 21     0.00000000000000     0.00000000000000     0.00000000000000
