CRYSTAL
PRIMVEC
 0.00000000000000 2.27709340260157 2.27709340260157
 2.27709340260157 0.00000000000000 2.27709340260157
 2.27709340260157 2.27709340260157 0.00000000000000
PRIMCOORD
 1 1
 21     0.00000000000000     0.00000000000000     0.00000000000000
