CRYSTAL
PRIMVEC
 2.91338596056250 0.00000000000000 0.00000000000000
 0.00000000000000 2.91338596056250 0.00000000000000
 0.00000000000000 0.00000000000000 2.91338596056250
PRIMCOORD
 1 1
 21     0.00000000000000     0.00000000000000     0.00000000000000
