CRYSTAL
PRIMVEC
 -1.68829909865485 1.68829909865485 1.68829909865485
 1.68829909865485 -1.68829909865485 1.68829909865485
 1.68829909865485 1.68829909865485 -1.68829909865485
PRIMCOORD
 1 1
 34     0.00000000000000     0.00000000000000     0.00000000000000
