CRYSTAL
PRIMVEC
 -1.68829910255096 1.68829910255096 1.68829910255096
 1.68829910255096 -1.68829910255096 1.68829910255096
 1.68829910255096 1.68829910255096 -1.68829910255096
PRIMCOORD
 1 1
 34     0.00000000000000     0.00000000000000     0.00000000000000
