CRYSTAL
PRIMVEC
 0.00000000000000 2.12643798145964 2.12643798145964
 2.12643798145964 0.00000000000000 2.12643798145964
 2.12643798145964 2.12643798145964 0.00000000000000
PRIMCOORD
 1 1
 34     0.00000000000000     0.00000000000000     0.00000000000000
