CRYSTAL
PRIMVEC
 2.78611535668454 0.00000000000000 0.00000000000000
 0.00000000000000 2.78611535668454 0.00000000000000
 0.00000000000000 0.00000000000000 2.78611535668454
PRIMCOORD
 1 1
 34     0.00000000000000     0.00000000000000     0.00000000000000
