CRYSTAL
PRIMVEC
 2.78611534860327 0.00000000000000 0.00000000000000
 0.00000000000000 2.78611534860327 0.00000000000000
 0.00000000000000 0.00000000000000 2.78611534860327
PRIMCOORD
 1 1
 34     0.00000000000000     0.00000000000000     0.00000000000000
