CRYSTAL
PRIMVEC
 -1.52801577161809 1.52801577161809 1.52801577161809
 1.52801577161809 -1.52801577161809 1.52801577161809
 1.52801577161809 1.52801577161809 -1.52801577161809
PRIMCOORD
 1 1
 14     0.00000000000000     0.00000000000000     0.00000000000000
