CRYSTAL
PRIMVEC
 -1.52801577363566 1.52801577363566 1.52801577363566
 1.52801577363566 -1.52801577363566 1.52801577363566
 1.52801577363566 1.52801577363566 -1.52801577363566
PRIMCOORD
 1 1
 14     0.00000000000000     0.00000000000000     0.00000000000000
