CRYSTAL
PRIMVEC
 0.00000000000000 1.91584216839571 1.91584216839571
 1.91584216839571 0.00000000000000 1.91584216839571
 1.91584216839571 1.91584216839571 0.00000000000000
PRIMCOORD
 1 1
 14     0.00000000000000     0.00000000000000     0.00000000000000
