CRYSTAL
PRIMVEC
 2.51282550254361 0.00000000000000 0.00000000000000
 0.00000000000000 2.51282550254361 0.00000000000000
 0.00000000000000 0.00000000000000 2.51282550254361
PRIMCOORD
 1 1
 14     0.00000000000000     0.00000000000000     0.00000000000000
