CRYSTAL
PRIMVEC
 2.51282551611857 0.00000000000000 0.00000000000000
 0.00000000000000 2.51282551611857 0.00000000000000
 0.00000000000000 0.00000000000000 2.51282551611857
PRIMCOORD
 1 1
 14     0.00000000000000     0.00000000000000     0.00000000000000
