CRYSTAL
PRIMVEC
 -1.62735878549030 1.62735878549030 1.62735878549030
 1.62735878549030 -1.62735878549030 1.62735878549030
 1.62735878549030 1.62735878549030 -1.62735878549030
PRIMCOORD
 1 1
 62     0.00000000000000     0.00000000000000     0.00000000000000
