CRYSTAL
PRIMVEC
 -1.62735880898598 1.62735880898598 1.62735880898598
 1.62735880898598 -1.62735880898598 1.62735880898598
 1.62735880898598 1.62735880898598 -1.62735880898598
PRIMCOORD
 1 1
 62     0.00000000000000     0.00000000000000     0.00000000000000
