CRYSTAL
PRIMVEC
 0.00000000000000 2.12998368207722 2.12998368207722
 2.12998368207722 0.00000000000000 2.12998368207722
 2.12998368207722 2.12998368207722 0.00000000000000
PRIMCOORD
 1 1
 62     0.00000000000000     0.00000000000000     0.00000000000000
