CRYSTAL
PRIMVEC
 0.00000000000000 2.12998365216577 2.12998365216577
 2.12998365216577 0.00000000000000 2.12998365216577
 2.12998365216577 2.12998365216577 0.00000000000000
PRIMCOORD
 1 1
 62     0.00000000000000     0.00000000000000     0.00000000000000
