CRYSTAL
PRIMVEC
 2.51393466842532 0.00000000000000 0.00000000000000
 0.00000000000000 2.51393466842532 0.00000000000000
 0.00000000000000 0.00000000000000 2.51393466842532
PRIMCOORD
 1 1
 62     0.00000000000000     0.00000000000000     0.00000000000000
