CRYSTAL
PRIMVEC
 -1.86933310315971 1.86933310315971 1.86933310315971
 1.86933310315971 -1.86933310315971 1.86933310315971
 1.86933310315971 1.86933310315971 -1.86933310315971
PRIMCOORD
 1 1
 50     0.00000000000000     0.00000000000000     0.00000000000000
