CRYSTAL
PRIMVEC
 -1.86933309515935 1.86933309515935 1.86933309515935
 1.86933309515935 -1.86933309515935 1.86933309515935
 1.86933309515935 1.86933309515935 -1.86933309515935
PRIMCOORD
 1 1
 50     0.00000000000000     0.00000000000000     0.00000000000000
