CRYSTAL
PRIMVEC
 3.03292900570125 0.00000000000000 0.00000000000000
 0.00000000000000 3.03292900570125 0.00000000000000
 0.00000000000000 0.00000000000000 3.03292900570125
PRIMCOORD
 1 1
 50     0.00000000000000     0.00000000000000     0.00000000000000
