CRYSTAL
PRIMVEC
 -2.33734274665303 2.33734274665303 2.33734274665303
 2.33734274665303 -2.33734274665303 2.33734274665303
 2.33734274665303 2.33734274665303 -2.33734274665303
PRIMCOORD
 1 1
 38     0.00000000000000     0.00000000000000     0.00000000000000
