CRYSTAL
PRIMVEC
 -2.33734275326397 2.33734275326397 2.33734275326397
 2.33734275326397 -2.33734275326397 2.33734275326397
 2.33734275326397 2.33734275326397 -2.33734275326397
PRIMCOORD
 1 1
 38     0.00000000000000     0.00000000000000     0.00000000000000
