CRYSTAL
PRIMVEC
 0.00000000000000 2.96268502083956 2.96268502083956
 2.96268502083956 0.00000000000000 2.96268502083956
 2.96268502083956 2.96268502083956 0.00000000000000
PRIMCOORD
 1 1
 38     0.00000000000000     0.00000000000000     0.00000000000000
