CRYSTAL
PRIMVEC
 3.75740805180590 0.00000000000000 0.00000000000000
 0.00000000000000 3.75740805180590 0.00000000000000
 0.00000000000000 0.00000000000000 3.75740805180590
PRIMCOORD
 1 1
 38     0.00000000000000     0.00000000000000     0.00000000000000
