CRYSTAL
PRIMVEC
 3.75740778390913 0.00000000000000 0.00000000000000
 0.00000000000000 3.75740778390913 0.00000000000000
 0.00000000000000 0.00000000000000 3.75740778390913
PRIMCOORD
 1 1
 38     0.00000000000000     0.00000000000000     0.00000000000000
