CRYSTAL
PRIMVEC
 -1.64058176968477 1.64058176968477 1.64058176968477
 1.64058176968477 -1.64058176968477 1.64058176968477
 1.64058176968477 1.64058176968477 -1.64058176968477
PRIMCOORD
 1 1
 73     0.00000000000000     0.00000000000000     0.00000000000000
