CRYSTAL
PRIMVEC
 -1.64058176970198 1.64058176970198 1.64058176970198
 1.64058176970198 -1.64058176970198 1.64058176970198
 1.64058176970198 1.64058176970198 -1.64058176970198
PRIMCOORD
 1 1
 73     0.00000000000000     0.00000000000000     0.00000000000000
