CRYSTAL
PRIMVEC
 0.00000000000000 2.08828594535284 2.08828594535284
 2.08828594535284 0.00000000000000 2.08828594535284
 2.08828594535284 2.08828594535284 0.00000000000000
PRIMCOORD
 1 1
 73     0.00000000000000     0.00000000000000     0.00000000000000
