CRYSTAL
PRIMVEC
 2.70871993680512 0.00000000000000 0.00000000000000
 0.00000000000000 2.70871993680512 0.00000000000000
 0.00000000000000 0.00000000000000 2.70871993680512
PRIMCOORD
 1 1
 73     0.00000000000000     0.00000000000000     0.00000000000000
