CRYSTAL
PRIMVEC
 -1.87662150227143 1.87662150227143 1.87662150227143
 1.87662150227143 -1.87662150227143 1.87662150227143
 1.87662150227143 1.87662150227143 -1.87662150227143
PRIMCOORD
 1 1
 65     0.00000000000000     0.00000000000000     0.00000000000000
