CRYSTAL
PRIMVEC
 -1.87662105647302 1.87662105647302 1.87662105647302
 1.87662105647302 -1.87662105647302 1.87662105647302
 1.87662105647302 1.87662105647302 -1.87662105647302
PRIMCOORD
 1 1
 65     0.00000000000000     0.00000000000000     0.00000000000000
