CRYSTAL
PRIMVEC
 0.00000000000000 2.34325628390387 2.34325628390387
 2.34325628390387 0.00000000000000 2.34325628390387
 2.34325628390387 2.34325628390387 0.00000000000000
PRIMCOORD
 1 1
 65     0.00000000000000     0.00000000000000     0.00000000000000
