CRYSTAL
PRIMVEC
 0.00000000000000 2.34325687471020 2.34325687471020
 2.34325687471020 0.00000000000000 2.34325687471020
 2.34325687471020 2.34325687471020 0.00000000000000
PRIMCOORD
 1 1
 65     0.00000000000000     0.00000000000000     0.00000000000000
