CRYSTAL
PRIMVEC
 2.69369363736506 0.00000000000000 0.00000000000000
 0.00000000000000 2.69369363736506 0.00000000000000
 0.00000000000000 0.00000000000000 2.69369363736506
PRIMCOORD
 1 1
 65     0.00000000000000     0.00000000000000     0.00000000000000
