CRYSTAL
PRIMVEC
 2.69369404210600 0.00000000000000 0.00000000000000
 0.00000000000000 2.69369404210600 0.00000000000000
 0.00000000000000 0.00000000000000 2.69369404210600
PRIMCOORD
 1 1
 65     0.00000000000000     0.00000000000000     0.00000000000000
