CRYSTAL
PRIMVEC
 -1.52463281252035 1.52463281252035 1.52463281252035
 1.52463281252035 -1.52463281252035 1.52463281252035
 1.52463281252035 1.52463281252035 -1.52463281252035
PRIMCOORD
 1 1
 43     0.00000000000000     0.00000000000000     0.00000000000000
