CRYSTAL
PRIMVEC
 -1.52463281497585 1.52463281497585 1.52463281497585
 1.52463281497585 -1.52463281497585 1.52463281497585
 1.52463281497585 1.52463281497585 -1.52463281497585
PRIMCOORD
 1 1
 43     0.00000000000000     0.00000000000000     0.00000000000000
