CRYSTAL
PRIMVEC
 0.00000000000000 1.91639187451817 1.91639187451817
 1.91639187451817 0.00000000000000 1.91639187451817
 1.91639187451817 1.91639187451817 0.00000000000000
PRIMCOORD
 1 1
 43     0.00000000000000     0.00000000000000     0.00000000000000
