CRYSTAL
PRIMVEC
 2.50333896341163 0.00000000000000 0.00000000000000
 0.00000000000000 2.50333896341163 0.00000000000000
 0.00000000000000 0.00000000000000 2.50333896341163
PRIMCOORD
 1 1
 43     0.00000000000000     0.00000000000000     0.00000000000000
