CRYSTAL
PRIMVEC
 2.50333898586654 0.00000000000000 0.00000000000000
 0.00000000000000 2.50333898586654 0.00000000000000
 0.00000000000000 0.00000000000000 2.50333898586654
PRIMCOORD
 1 1
 43     0.00000000000000     0.00000000000000     0.00000000000000
