CRYSTAL
PRIMVEC
 -1.89060512575299 1.89060512575299 1.89060512575299
 1.89060512575299 -1.89060512575299 1.89060512575299
 1.89060512575299 1.89060512575299 -1.89060512575299
PRIMCOORD
 1 1
 52     0.00000000000000     0.00000000000000     0.00000000000000
