CRYSTAL
PRIMVEC
 -1.89060513127579 1.89060513127579 1.89060513127579
 1.89060513127579 -1.89060513127579 1.89060513127579
 1.89060513127579 1.89060513127579 -1.89060513127579
PRIMCOORD
 1 1
 52     0.00000000000000     0.00000000000000     0.00000000000000
