CRYSTAL
PRIMVEC
 0.00000000000000 2.37408287653824 2.37408287653824
 2.37408287653824 0.00000000000000 2.37408287653824
 2.37408287653824 2.37408287653824 0.00000000000000
PRIMCOORD
 1 1
 52     0.00000000000000     0.00000000000000     0.00000000000000
