CRYSTAL
PRIMVEC
 0.00000000000000 2.37408288662915 2.37408288662915
 2.37408288662915 0.00000000000000 2.37408288662915
 2.37408288662915 2.37408288662915 0.00000000000000
PRIMCOORD
 1 1
 52     0.00000000000000     0.00000000000000     0.00000000000000
