CRYSTAL
PRIMVEC
 3.15054922533434 0.00000000000000 0.00000000000000
 0.00000000000000 3.15054922533434 0.00000000000000
 0.00000000000000 0.00000000000000 3.15054922533434
PRIMCOORD
 1 1
 52     0.00000000000000     0.00000000000000     0.00000000000000
