CRYSTAL
PRIMVEC
 3.15054923152710 0.00000000000000 0.00000000000000
 0.00000000000000 3.15054923152710 0.00000000000000
 0.00000000000000 0.00000000000000 3.15054923152710
PRIMCOORD
 1 1
 52     0.00000000000000     0.00000000000000     0.00000000000000
