CRYSTAL
PRIMVEC
 -1.97582790714439 1.97582790714439 1.97582790714439
 1.97582790714439 -1.97582790714439 1.97582790714439
 1.97582790714439 1.97582790714439 -1.97582790714439
PRIMCOORD
 1 1
 90     0.00000000000000     0.00000000000000     0.00000000000000
