CRYSTAL
PRIMVEC
 -1.97582798442795 1.97582798442795 1.97582798442795
 1.97582798442795 -1.97582798442795 1.97582798442795
 1.97582798442795 1.97582798442795 -1.97582798442795
PRIMCOORD
 1 1
 90     0.00000000000000     0.00000000000000     0.00000000000000
