CRYSTAL
PRIMVEC
 0.00000000000000 2.47540660804003 2.47540660804003
 2.47540660804003 0.00000000000000 2.47540660804003
 2.47540660804003 2.47540660804003 0.00000000000000
PRIMCOORD
 1 1
 90     0.00000000000000     0.00000000000000     0.00000000000000
