CRYSTAL
PRIMVEC
 3.20826651271305 0.00000000000000 0.00000000000000
 0.00000000000000 3.20826651271305 0.00000000000000
 0.00000000000000 0.00000000000000 3.20826651271305
PRIMCOORD
 1 1
 90     0.00000000000000     0.00000000000000     0.00000000000000
