CRYSTAL
PRIMVEC
 3.20826737769491 0.00000000000000 0.00000000000000
 0.00000000000000 3.20826737769491 0.00000000000000
 0.00000000000000 0.00000000000000 3.20826737769491
PRIMCOORD
 1 1
 90     0.00000000000000     0.00000000000000     0.00000000000000
