CRYSTAL
PRIMVEC
 -1.60536751782301 1.60536751782301 1.60536751782301
 1.60536751782301 -1.60536751782301 1.60536751782301
 1.60536751782301 1.60536751782301 -1.60536751782301
PRIMCOORD
 1 1
 22     0.00000000000000     0.00000000000000     0.00000000000000
