CRYSTAL
PRIMVEC
 -1.60536751811053 1.60536751811053 1.60536751811053
 1.60536751811053 -1.60536751811053 1.60536751811053
 1.60536751811053 1.60536751811053 -1.60536751811053
PRIMCOORD
 1 1
 22     0.00000000000000     0.00000000000000     0.00000000000000
