CRYSTAL
PRIMVEC
 0.00000000000000 2.02844534128402 2.02844534128402
 2.02844534128402 0.00000000000000 2.02844534128402
 2.02844534128402 2.02844534128402 0.00000000000000
PRIMCOORD
 1 1
 22     0.00000000000000     0.00000000000000     0.00000000000000
