CRYSTAL
PRIMVEC
 2.59553161586680 0.00000000000000 0.00000000000000
 0.00000000000000 2.59553161586680 0.00000000000000
 0.00000000000000 0.00000000000000 2.59553161586680
PRIMCOORD
 1 1
 22     0.00000000000000     0.00000000000000     0.00000000000000
