CRYSTAL
PRIMVEC
 2.59553160511827 0.00000000000000 0.00000000000000
 0.00000000000000 2.59553160511827 0.00000000000000
 0.00000000000000 0.00000000000000 2.59553160511827
PRIMCOORD
 1 1
 22     0.00000000000000     0.00000000000000     0.00000000000000
