CRYSTAL
PRIMVEC
 -1.92638907768429 1.92638907768429 1.92638907768429
 1.92638907768429 -1.92638907768429 1.92638907768429
 1.92638907768429 1.92638907768429 -1.92638907768429
PRIMCOORD
 1 1
 81     0.00000000000000     0.00000000000000     0.00000000000000
