CRYSTAL
PRIMVEC
 -1.92638907636228 1.92638907636228 1.92638907636228
 1.92638907636228 -1.92638907636228 1.92638907636228
 1.92638907636228 1.92638907636228 -1.92638907636228
PRIMCOORD
 1 1
 81     0.00000000000000     0.00000000000000     0.00000000000000
