CRYSTAL
PRIMVEC
 3.14452453796267 0.00000000000000 0.00000000000000
 0.00000000000000 3.14452453796267 0.00000000000000
 0.00000000000000 0.00000000000000 3.14452453796267
PRIMCOORD
 1 1
 81     0.00000000000000     0.00000000000000     0.00000000000000
