CRYSTAL
PRIMVEC
 3.14452450951744 0.00000000000000 0.00000000000000
 0.00000000000000 3.14452450951744 0.00000000000000
 0.00000000000000 0.00000000000000 3.14452450951744
PRIMCOORD
 1 1
 81     0.00000000000000     0.00000000000000     0.00000000000000
