CRYSTAL
PRIMVEC
 -1.98370274481618 1.98370274481618 1.98370274481618
 1.98370274481618 -1.98370274481618 1.98370274481618
 1.98370274481618 1.98370274481618 -1.98370274481618
PRIMCOORD
 1 1
 69     0.00000000000000     0.00000000000000     0.00000000000000
