CRYSTAL
PRIMVEC
 0.00000000000000 2.51786421904476 2.51786421904476
 2.51786421904476 0.00000000000000 2.51786421904476
 2.51786421904476 2.51786421904476 0.00000000000000
PRIMCOORD
 1 1
 69     0.00000000000000     0.00000000000000     0.00000000000000
