CRYSTAL
PRIMVEC
 3.20127282787257 0.00000000000000 0.00000000000000
 0.00000000000000 3.20127282787257 0.00000000000000
 0.00000000000000 0.00000000000000 3.20127282787257
PRIMCOORD
 1 1
 69     0.00000000000000     0.00000000000000     0.00000000000000
