CRYSTAL
PRIMVEC
 -1.68618060295711 1.68618060295711 1.68618060295711
 1.68618060295711 -1.68618060295711 1.68618060295711
 1.68618060295711 1.68618060295711 -1.68618060295711
PRIMCOORD
 1 1
 92     0.00000000000000     0.00000000000000     0.00000000000000
