CRYSTAL
PRIMVEC
 -1.68618057583375 1.68618057583375 1.68618057583375
 1.68618057583375 -1.68618057583375 1.68618057583375
 1.68618057583375 1.68618057583375 -1.68618057583375
PRIMCOORD
 1 1
 92     0.00000000000000     0.00000000000000     0.00000000000000
