CRYSTAL
PRIMVEC
 0.00000000000000 2.17326676607702 2.17326676607702
 2.17326676607702 0.00000000000000 2.17326676607702
 2.17326676607702 2.17326676607702 0.00000000000000
PRIMCOORD
 1 1
 92     0.00000000000000     0.00000000000000     0.00000000000000
