CRYSTAL
PRIMVEC
 0.00000000000000 2.17326673285303 2.17326673285303
 2.17326673285303 0.00000000000000 2.17326673285303
 2.17326673285303 2.17326673285303 0.00000000000000
PRIMCOORD
 1 1
 92     0.00000000000000     0.00000000000000     0.00000000000000
