CRYSTAL
PRIMVEC
 2.63342887447701 0.00000000000000 0.00000000000000
 0.00000000000000 2.63342887447701 0.00000000000000
 0.00000000000000 0.00000000000000 2.63342887447701
PRIMCOORD
 1 1
 92     0.00000000000000     0.00000000000000     0.00000000000000
