CRYSTAL
PRIMVEC
 2.63342894883989 0.00000000000000 0.00000000000000
 0.00000000000000 2.63342894883989 0.00000000000000
 0.00000000000000 0.00000000000000 2.63342894883989
PRIMCOORD
 1 1
 92     0.00000000000000     0.00000000000000     0.00000000000000
