CRYSTAL
PRIMVEC
 -1.47941676112940 1.47941676112940 1.47941676112940
 1.47941676112940 -1.47941676112940 1.47941676112940
 1.47941676112940 1.47941676112940 -1.47941676112940
PRIMCOORD
 1 1
 23     0.00000000000000     0.00000000000000     0.00000000000000
