CRYSTAL
PRIMVEC
 -1.47941675994283 1.47941675994283 1.47941675994283
 1.47941675994283 -1.47941675994283 1.47941675994283
 1.47941675994283 1.47941675994283 -1.47941675994283
PRIMCOORD
 1 1
 23     0.00000000000000     0.00000000000000     0.00000000000000
