CRYSTAL
PRIMVEC
 0.00000000000000 1.88488820910984 1.88488820910984
 1.88488820910984 0.00000000000000 1.88488820910984
 1.88488820910984 1.88488820910984 0.00000000000000
PRIMCOORD
 1 1
 23     0.00000000000000     0.00000000000000     0.00000000000000
