CRYSTAL
PRIMVEC
 0.00000000000000 1.88488820764327 1.88488820764327
 1.88488820764327 0.00000000000000 1.88488820764327
 1.88488820764327 1.88488820764327 0.00000000000000
PRIMCOORD
 1 1
 23     0.00000000000000     0.00000000000000     0.00000000000000
