CRYSTAL
PRIMVEC
 2.41223215732111 0.00000000000000 0.00000000000000
 0.00000000000000 2.41223215732111 0.00000000000000
 0.00000000000000 0.00000000000000 2.41223215732111
PRIMCOORD
 1 1
 23     0.00000000000000     0.00000000000000     0.00000000000000
