CRYSTAL
PRIMVEC
 -1.57731455888158 1.57731455888158 1.57731455888158
 1.57731455888158 -1.57731455888158 1.57731455888158
 1.57731455888158 1.57731455888158 -1.57731455888158
PRIMCOORD
 1 1
 74     0.00000000000000     0.00000000000000     0.00000000000000
