CRYSTAL
PRIMVEC
 0.00000000000000 1.99937255372240 1.99937255372240
 1.99937255372240 0.00000000000000 1.99937255372240
 1.99937255372240 1.99937255372240 0.00000000000000
PRIMCOORD
 1 1
 74     0.00000000000000     0.00000000000000     0.00000000000000
