CRYSTAL
PRIMVEC
 0.00000000000000 1.99937254399068 1.99937254399068
 1.99937254399068 0.00000000000000 1.99937254399068
 1.99937254399068 1.99937254399068 0.00000000000000
PRIMCOORD
 1 1
 74     0.00000000000000     0.00000000000000     0.00000000000000
