CRYSTAL
PRIMVEC
 2.60990172625628 0.00000000000000 0.00000000000000
 0.00000000000000 2.60990172625628 0.00000000000000
 0.00000000000000 0.00000000000000 2.60990172625628
PRIMCOORD
 1 1
 74     0.00000000000000     0.00000000000000     0.00000000000000
