CRYSTAL
PRIMVEC
 2.60990175208838 0.00000000000000 0.00000000000000
 0.00000000000000 2.60990175208838 0.00000000000000
 0.00000000000000 0.00000000000000 2.60990175208838
PRIMCOORD
 1 1
 74     0.00000000000000     0.00000000000000     0.00000000000000
