CRYSTAL
PRIMVEC
 -2.61291492101422 2.61291492101422 2.61291492101422
 2.61291492101422 -2.61291492101422 2.61291492101422
 2.61291492101422 2.61291492101422 -2.61291492101422
PRIMCOORD
 1 1
 54     0.00000000000000     0.00000000000000     0.00000000000000
