CRYSTAL
PRIMVEC
 0.00000000000000 3.24105823364691 3.24105823364691
 3.24105823364691 0.00000000000000 3.24105823364691
 3.24105823364691 3.24105823364691 0.00000000000000
PRIMCOORD
 1 1
 54     0.00000000000000     0.00000000000000     0.00000000000000
