CRYSTAL
PRIMVEC
 4.55874387888890 0.00000000000000 0.00000000000000
 0.00000000000000 4.55874387888890 0.00000000000000
 0.00000000000000 0.00000000000000 4.55874387888890
PRIMCOORD
 1 1
 54     0.00000000000000     0.00000000000000     0.00000000000000
