CRYSTAL
PRIMVEC
 4.55874388185180 0.00000000000000 0.00000000000000
 0.00000000000000 4.55874388185180 0.00000000000000
 0.00000000000000 0.00000000000000 4.55874388185180
PRIMCOORD
 1 1
 54     0.00000000000000     0.00000000000000     0.00000000000000
