CRYSTAL
PRIMVEC
 -1.98735812402455 1.98735812402455 1.98735812402455
 1.98735812402455 -1.98735812402455 1.98735812402455
 1.98735812402455 1.98735812402455 -1.98735812402455
PRIMCOORD
 1 1
 39     0.00000000000000     0.00000000000000     0.00000000000000
