CRYSTAL
PRIMVEC
 -1.98735812376849 1.98735812376849 1.98735812376849
 1.98735812376849 -1.98735812376849 1.98735812376849
 1.98735812376849 1.98735812376849 -1.98735812376849
PRIMCOORD
 1 1
 39     0.00000000000000     0.00000000000000     0.00000000000000
