CRYSTAL
PRIMVEC
 0.00000000000000 2.48895588065683 2.48895588065683
 2.48895588065683 0.00000000000000 2.48895588065683
 2.48895588065683 2.48895588065683 0.00000000000000
PRIMCOORD
 1 1
 39     0.00000000000000     0.00000000000000     0.00000000000000
