CRYSTAL
PRIMVEC
 3.19293753913397 0.00000000000000 0.00000000000000
 0.00000000000000 3.19293753913397 0.00000000000000
 0.00000000000000 0.00000000000000 3.19293753913397
PRIMCOORD
 1 1
 39     0.00000000000000     0.00000000000000     0.00000000000000
