CRYSTAL
PRIMVEC
 -1.99509419687155 1.99509419687155 1.99509419687155
 1.99509419687155 -1.99509419687155 1.99509419687155
 1.99509419687155 1.99509419687155 -1.99509419687155
PRIMCOORD
 1 1
 70     0.00000000000000     0.00000000000000     0.00000000000000
