CRYSTAL
PRIMVEC
 -1.99509419481769 1.99509419481769 1.99509419481769
 1.99509419481769 -1.99509419481769 1.99509419481769
 1.99509419481769 1.99509419481769 -1.99509419481769
PRIMCOORD
 1 1
 70     0.00000000000000     0.00000000000000     0.00000000000000
