CRYSTAL
PRIMVEC
 0.00000000000000 2.53551243667416 2.53551243667416
 2.53551243667416 0.00000000000000 2.53551243667416
 2.53551243667416 2.53551243667416 0.00000000000000
PRIMCOORD
 1 1
 70     0.00000000000000     0.00000000000000     0.00000000000000
