CRYSTAL
PRIMVEC
 3.24565321293258 0.00000000000000 0.00000000000000
 0.00000000000000 3.24565321293258 0.00000000000000
 0.00000000000000 0.00000000000000 3.24565321293258
PRIMCOORD
 1 1
 70     0.00000000000000     0.00000000000000     0.00000000000000
