CRYSTAL
PRIMVEC
 -1.52962528060974 1.52962528060974 1.52962528060974
 1.52962528060974 -1.52962528060974 1.52962528060974
 1.52962528060974 1.52962528060974 -1.52962528060974
PRIMCOORD
 1 1
 30     0.00000000000000     0.00000000000000     0.00000000000000
