CRYSTAL
PRIMVEC
 0.00000000000000 1.92009603736094 1.92009603736094
 1.92009603736094 0.00000000000000 1.92009603736094
 1.92009603736094 1.92009603736094 0.00000000000000
PRIMCOORD
 1 1
 30     0.00000000000000     0.00000000000000     0.00000000000000
