CRYSTAL
PRIMVEC
 0.00000000000000 1.92009603818163 1.92009603818163
 1.92009603818163 0.00000000000000 1.92009603818163
 1.92009603818163 1.92009603818163 0.00000000000000
PRIMCOORD
 1 1
 30     0.00000000000000     0.00000000000000     0.00000000000000
