CRYSTAL
PRIMVEC
 2.56445122783108 0.00000000000000 0.00000000000000
 0.00000000000000 2.56445122783108 0.00000000000000
 0.00000000000000 0.00000000000000 2.56445122783108
PRIMCOORD
 1 1
 30     0.00000000000000     0.00000000000000     0.00000000000000
