CRYSTAL
PRIMVEC
 -1.76061191027529 1.76061191027529 1.76061191027529
 1.76061191027529 -1.76061191027529 1.76061191027529
 1.76061191027529 1.76061191027529 -1.76061191027529
PRIMCOORD
 1 1
 40     0.00000000000000     0.00000000000000     0.00000000000000
