CRYSTAL
PRIMVEC
 -1.76061191104250 1.76061191104250 1.76061191104250
 1.76061191104250 -1.76061191104250 1.76061191104250
 1.76061191104250 1.76061191104250 -1.76061191104250
PRIMCOORD
 1 1
 40     0.00000000000000     0.00000000000000     0.00000000000000
