CRYSTAL
PRIMVEC
 0.00000000000000 2.23236188568118 2.23236188568118
 2.23236188568118 0.00000000000000 2.23236188568118
 2.23236188568118 2.23236188568118 0.00000000000000
PRIMCOORD
 1 1
 40     0.00000000000000     0.00000000000000     0.00000000000000
