CRYSTAL
PRIMVEC
 2.86544883718886 0.00000000000000 0.00000000000000
 0.00000000000000 2.86544883718886 0.00000000000000
 0.00000000000000 0.00000000000000 2.86544883718886
PRIMCOORD
 1 1
 40     0.00000000000000     0.00000000000000     0.00000000000000
