CRYSTAL
PRIMVEC
 2.86544884508478 0.00000000000000 0.00000000000000
 0.00000000000000 2.86544884508478 0.00000000000000
 0.00000000000000 0.00000000000000 2.86544884508478
PRIMCOORD
 1 1
 40     0.00000000000000     0.00000000000000     0.00000000000000
