CRYSTAL
PRIMVEC
 2.58630970891903 0.00000000000000 0.00000000000000
 0.00000000000000 2.58630970891903 0.00000000000000
 0.00000000000000 0.00000000000000 2.58630970891903
PRIMCOORD
 1 1
 97     0.00000000000000     0.00000000000000     0.00000000000000
