CRYSTAL
PRIMVEC
 -1.69827418020443 1.69827418020443 1.69827418020443
 1.69827418020443 -1.69827418020443 1.69827418020443
 1.69827418020443 1.69827418020443 -1.69827418020443
PRIMCOORD
 1 1
 98     0.00000000000000     0.00000000000000     0.00000000000000
