CRYSTAL
PRIMVEC
 0.00000000000000 2.27797768597675 2.27797768597675
 2.27797768597675 0.00000000000000 2.27797768597675
 2.27797768597675 2.27797768597675 0.00000000000000
PRIMCOORD
 1 1
 99     0.00000000000000     0.00000000000000     0.00000000000000
