CRYSTAL
PRIMVEC
 0.00000000000000 2.45824705303479 2.45824705303479
 2.45824705303479 0.00000000000000 2.45824705303479
 2.45824705303479 2.45824705303479 0.00000000000000
PRIMCOORD
 1 1
 100     0.00000000000000     0.00000000000000     0.00000000000000
