CRYSTAL
PRIMVEC
 3.12356459885656 0.00000000000000 0.00000000000000
 0.00000000000000 3.12356459885656 0.00000000000000
 0.00000000000000 0.00000000000000 3.12356459885656
PRIMCOORD
 1 1
 100     0.00000000000000     0.00000000000000     0.00000000000000
