CRYSTAL
PRIMVEC
 -1.97592093651508 1.97592093651508 1.97592093651508
 1.97592093651508 -1.97592093651508 1.97592093651508
 1.97592093651508 1.97592093651508 -1.97592093651508
PRIMCOORD
 1 1
 103     0.00000000000000     0.00000000000000     0.00000000000000
