CRYSTAL
PRIMVEC
 3.28256579361010 0.00000000000000 0.00000000000000
 0.00000000000000 3.28256579361010 0.00000000000000
 0.00000000000000 0.00000000000000 3.28256579361010
PRIMCOORD
 1 1
 103     0.00000000000000     0.00000000000000     0.00000000000000
