CRYSTAL
PRIMVEC
 3.50370373080220 0.00000000000000 0.00000000000000
 0.00000000000000 3.50370373080220 0.00000000000000
 0.00000000000000 0.00000000000000 3.50370373080220
PRIMCOORD
 1 1
 101     0.00000000000000     0.00000000000000     0.00000000000000
