CRYSTAL
PRIMVEC
 -2.14163146290211 2.14163146290211 2.14163146290211
 2.14163146290211 -2.14163146290211 2.14163146290211
 2.14163146290211 2.14163146290211 -2.14163146290211
PRIMCOORD
 1 1
 102     0.00000000000000     0.00000000000000     0.00000000000000
