CRYSTAL
PRIMVEC
 0.00000000000000 2.71270389399218 2.71270389399218
 2.71270389399218 0.00000000000000 2.71270389399218
 2.71270389399218 2.71270389399218 0.00000000000000
PRIMCOORD
 1 1
 102     0.00000000000000     0.00000000000000     0.00000000000000
