
     Program PWSCF v.7.0 starts on  8Mar2023 at 20:35:20 

     This program is part of the open-source Quantum ESPRESSO suite
     for quantum simulation of materials; please cite
         "P. Giannozzi et al., J. Phys.:Condens. Matter 21 395502 (2009);
         "P. Giannozzi et al., J. Phys.:Condens. Matter 29 465901 (2017);
         "P. Giannozzi et al., J. Chem. Phys. 152 154105 (2020);
          URL http://www.quantum-espresso.org", 
     in publications or presentations arising from this work. More details at
     http://www.quantum-espresso.org/quote

     Parallel version (MPI & OpenMP), running on       8 processor cores
     Number of MPI processes:                 8
     Threads/MPI process:                     1

     MPI processes distributed on     1 nodes
     R & G space division:  proc/nbgrp/npool/nimage =       8
     55593 MiB available memory on the printing compute node when the environment starts

     Reading input from aiida.in

     Current dimensions of program PWSCF are:
     Max number of different atomic species (ntypx) = 10
     Max number of k-points (npk) =  40000
     Max angular momentum in pseudopotentials (lmaxx) =  4

     Atomic positions and unit cell read from directory:
     ./out/aiida.save/
     Atomic positions from file used, from input discarded

     file Er.paw.z_22.atompaw.wentzcovitch.v1.2.upf: wavefunction(s)  6S 0P 5D 0D 4F 0F renormalized
     Message from routine setup:
     using ibrav=0 with symmetry is DISCOURAGED, use correct ibrav instead

     Subspace diagonalization in iterative solution of the eigenvalue problem:
     one sub-group per band group will be used
     scalapack distributed-memory algorithm (size of sub-group:  2*  2 procs)


     Parallelization info
     --------------------
     sticks:   dense  smooth     PW     G-vecs:    dense   smooth      PW
     Min         364     185     52                13107     4638     707
     Max         365     186     53                13110     4640     710
     Sum        2917    1483    421               104867    37117    5673

     Using Slab Decomposition



     bravais-lattice index     =            0
     lattice parameter (alat)  =      11.5312  a.u.
     unit-cell volume          =    1084.1849 (a.u.)^3
     number of atoms/cell      =            2
     number of atomic types    =            1
     number of electrons       =        44.00
     number of Kohn-Sham states=           26
     kinetic-energy cutoff     =      40.0000  Ry
     charge density cutoff     =     320.0000  Ry
     Exchange-correlation= SLA PW PBX PBC
                           (   1   4   3   4   0   0   0)

     celldm(1)=  11.531154  celldm(2)=   0.000000  celldm(3)=   0.000000
     celldm(4)=   0.000000  celldm(5)=   0.000000  celldm(6)=   0.000000

     crystal axes: (cart. coord. in units of alat)
               a(1) = (   0.000000   0.707107   0.707107 )  
               a(2) = (   0.707107   0.000000   0.707107 )  
               a(3) = (   0.707107   0.707107   0.000000 )  

     reciprocal axes: (cart. coord. in units 2 pi/alat)
               b(1) = ( -0.707107  0.707107  0.707107 )  
               b(2) = (  0.707107 -0.707107  0.707107 )  
               b(3) = (  0.707107  0.707107 -0.707107 )  


     PseudoPot. # 1 for Er read from file:
     ./pseudo/Er.paw.z_22.atompaw.wentzcovitch.v1.2.upf
     MD5 check sum: 5ba6a5c626b1678e031aafe1da34e245
     Pseudo is Projector augmented-wave + core cor, Zval = 22.0
     Generated using ATOMPAW code
     Shape of augmentation charge: BESSEL
     Using radial grid of 1114 points,  8 beta functions with: 
                l(1) =   0
                l(2) =   0
                l(3) =   1
                l(4) =   1
                l(5) =   2
                l(6) =   2
                l(7) =   3
                l(8) =   3
     Q(r) pseudized with 0 coefficients 


     atomic species   valence    mass     pseudopotential
        Er            22.00   167.25900     Er( 1.00)

     48 Sym. Ops., with inversion, found (24 have fractional translation)


                                    s                        frac. trans.

      isym =  1     identity                                     

 cryst.   s( 1) = (     1          0          0      )
                  (     0          1          0      )
                  (     0          0          1      )

 cart.    s( 1) = (  1.0000000  0.0000000  0.0000000 )
                  (  0.0000000  1.0000000  0.0000000 )
                  (  0.0000000  0.0000000  1.0000000 )


      isym =  2     180 deg rotation - cart. axis [0,0,1]        

 cryst.   s( 2) = (     0          1         -1      )
                  (     1          0         -1      )
                  (     0          0         -1      )

 cart.    s( 2) = ( -1.0000000  0.0000000  0.0000000 )
                  (  0.0000000 -1.0000000  0.0000000 )
                  (  0.0000000  0.0000000  1.0000000 )


      isym =  3     180 deg rotation - cart. axis [0,1,0]        

 cryst.   s( 3) = (     0         -1          1      )
                  (     0         -1          0      )
                  (     1         -1          0      )

 cart.    s( 3) = ( -1.0000000  0.0000000  0.0000000 )
                  (  0.0000000  1.0000000  0.0000000 )
                  (  0.0000000  0.0000000 -1.0000000 )


      isym =  4     180 deg rotation - cart. axis [1,0,0]        

 cryst.   s( 4) = (    -1          0          0      )
                  (    -1          0          1      )
                  (    -1          1          0      )

 cart.    s( 4) = (  1.0000000  0.0000000  0.0000000 )
                  (  0.0000000 -1.0000000  0.0000000 )
                  (  0.0000000  0.0000000 -1.0000000 )


      isym =  5     180 deg rotation - cart. axis [1,1,0]        

 cryst.   s( 5) = (    -1          0          1      )    f =( -0.2500000 )
                  (     0         -1          1      )       ( -0.2500000 )
                  (     0          0          1      )       ( -0.2500000 )

 cart.    s( 5) = (  0.0000000  1.0000000  0.0000000 )    f =( -0.3535534 )
                  (  1.0000000  0.0000000  0.0000000 )       ( -0.3535534 )
                  (  0.0000000  0.0000000 -1.0000000 )       ( -0.3535534 )


      isym =  6     180 deg rotation - cart. axis [1,-1,0]       

 cryst.   s( 6) = (     0         -1          0      )    f =( -0.2500000 )
                  (    -1          0          0      )       ( -0.2500000 )
                  (     0          0         -1      )       ( -0.2500000 )

 cart.    s( 6) = (  0.0000000 -1.0000000  0.0000000 )    f =( -0.3535534 )
                  ( -1.0000000  0.0000000  0.0000000 )       ( -0.3535534 )
                  (  0.0000000  0.0000000 -1.0000000 )       ( -0.3535534 )


      isym =  7      90 deg rotation - cart. axis [0,0,-1]       

 cryst.   s( 7) = (     0          1          0      )    f =( -0.2500000 )
                  (     0          1         -1      )       ( -0.2500000 )
                  (    -1          1          0      )       ( -0.2500000 )

 cart.    s( 7) = (  0.0000000  1.0000000  0.0000000 )    f =( -0.3535534 )
                  ( -1.0000000  0.0000000  0.0000000 )       ( -0.3535534 )
                  (  0.0000000  0.0000000  1.0000000 )       ( -0.3535534 )


      isym =  8      90 deg rotation - cart. axis [0,0,1]        

 cryst.   s( 8) = (     1          0         -1      )    f =( -0.2500000 )
                  (     1          0          0      )       ( -0.2500000 )
                  (     1         -1          0      )       ( -0.2500000 )

 cart.    s( 8) = (  0.0000000 -1.0000000  0.0000000 )    f =( -0.3535534 )
                  (  1.0000000  0.0000000  0.0000000 )       ( -0.3535534 )
                  (  0.0000000  0.0000000  1.0000000 )       ( -0.3535534 )


      isym =  9     180 deg rotation - cart. axis [1,0,1]        

 cryst.   s( 9) = (    -1          1          0      )    f =( -0.2500000 )
                  (     0          1          0      )       ( -0.2500000 )
                  (     0          1         -1      )       ( -0.2500000 )

 cart.    s( 9) = (  0.0000000  0.0000000  1.0000000 )    f =( -0.3535534 )
                  (  0.0000000 -1.0000000  0.0000000 )       ( -0.3535534 )
                  (  1.0000000  0.0000000  0.0000000 )       ( -0.3535534 )


      isym = 10     180 deg rotation - cart. axis [-1,0,1]       

 cryst.   s(10) = (     0          0         -1      )    f =( -0.2500000 )
                  (     0         -1          0      )       ( -0.2500000 )
                  (    -1          0          0      )       ( -0.2500000 )

 cart.    s(10) = (  0.0000000  0.0000000 -1.0000000 )    f =( -0.3535534 )
                  (  0.0000000 -1.0000000  0.0000000 )       ( -0.3535534 )
                  ( -1.0000000  0.0000000  0.0000000 )       ( -0.3535534 )


      isym = 11      90 deg rotation - cart. axis [0,1,0]        

 cryst.   s(11) = (     0          0          1      )    f =( -0.2500000 )
                  (    -1          0          1      )       ( -0.2500000 )
                  (     0         -1          1      )       ( -0.2500000 )

 cart.    s(11) = (  0.0000000  0.0000000  1.0000000 )    f =( -0.3535534 )
                  (  0.0000000  1.0000000  0.0000000 )       ( -0.3535534 )
                  ( -1.0000000  0.0000000  0.0000000 )       ( -0.3535534 )


      isym = 12      90 deg rotation - cart. axis [0,-1,0]       

 cryst.   s(12) = (     1         -1          0      )    f =( -0.2500000 )
                  (     1          0         -1      )       ( -0.2500000 )
                  (     1          0          0      )       ( -0.2500000 )

 cart.    s(12) = (  0.0000000  0.0000000 -1.0000000 )    f =( -0.3535534 )
                  (  0.0000000  1.0000000  0.0000000 )       ( -0.3535534 )
                  (  1.0000000  0.0000000  0.0000000 )       ( -0.3535534 )


      isym = 13     180 deg rotation - cart. axis [0,1,1]        

 cryst.   s(13) = (     1          0          0      )    f =( -0.2500000 )
                  (     1         -1          0      )       ( -0.2500000 )
                  (     1          0         -1      )       ( -0.2500000 )

 cart.    s(13) = ( -1.0000000  0.0000000  0.0000000 )    f =( -0.3535534 )
                  (  0.0000000  0.0000000  1.0000000 )       ( -0.3535534 )
                  (  0.0000000  1.0000000  0.0000000 )       ( -0.3535534 )


      isym = 14     180 deg rotation - cart. axis [0,1,-1]       

 cryst.   s(14) = (    -1          0          0      )    f =( -0.2500000 )
                  (     0          0         -1      )       ( -0.2500000 )
                  (     0         -1          0      )       ( -0.2500000 )

 cart.    s(14) = ( -1.0000000  0.0000000  0.0000000 )    f =( -0.3535534 )
                  (  0.0000000  0.0000000 -1.0000000 )       ( -0.3535534 )
                  (  0.0000000 -1.0000000  0.0000000 )       ( -0.3535534 )


      isym = 15      90 deg rotation - cart. axis [-1,0,0]       

 cryst.   s(15) = (     0         -1          1      )    f =( -0.2500000 )
                  (     0          0          1      )       ( -0.2500000 )
                  (    -1          0          1      )       ( -0.2500000 )

 cart.    s(15) = (  1.0000000  0.0000000  0.0000000 )    f =( -0.3535534 )
                  (  0.0000000  0.0000000  1.0000000 )       ( -0.3535534 )
                  (  0.0000000 -1.0000000  0.0000000 )       ( -0.3535534 )


      isym = 16      90 deg rotation - cart. axis [1,0,0]        

 cryst.   s(16) = (     0          1         -1      )    f =( -0.2500000 )
                  (    -1          1          0      )       ( -0.2500000 )
                  (     0          1          0      )       ( -0.2500000 )

 cart.    s(16) = (  1.0000000  0.0000000  0.0000000 )    f =( -0.3535534 )
                  (  0.0000000  0.0000000 -1.0000000 )       ( -0.3535534 )
                  (  0.0000000  1.0000000  0.0000000 )       ( -0.3535534 )


      isym = 17     120 deg rotation - cart. axis [-1,-1,-1]     

 cryst.   s(17) = (     0          0          1      )
                  (     1          0          0      )
                  (     0          1          0      )

 cart.    s(17) = (  0.0000000  1.0000000  0.0000000 )
                  (  0.0000000  0.0000000  1.0000000 )
                  (  1.0000000  0.0000000  0.0000000 )


      isym = 18     120 deg rotation - cart. axis [-1,1,1]       

 cryst.   s(18) = (     1         -1          0      )
                  (     0         -1          1      )
                  (     0         -1          0      )

 cart.    s(18) = (  0.0000000 -1.0000000  0.0000000 )
                  (  0.0000000  0.0000000  1.0000000 )
                  ( -1.0000000  0.0000000  0.0000000 )


      isym = 19     120 deg rotation - cart. axis [1,1,-1]       

 cryst.   s(19) = (    -1          1          0      )
                  (    -1          0          0      )
                  (    -1          0          1      )

 cart.    s(19) = (  0.0000000  1.0000000  0.0000000 )
                  (  0.0000000  0.0000000 -1.0000000 )
                  ( -1.0000000  0.0000000  0.0000000 )


      isym = 20     120 deg rotation - cart. axis [1,-1,1]       

 cryst.   s(20) = (     0          0         -1      )
                  (     0          1         -1      )
                  (     1          0         -1      )

 cart.    s(20) = (  0.0000000 -1.0000000  0.0000000 )
                  (  0.0000000  0.0000000 -1.0000000 )
                  (  1.0000000  0.0000000  0.0000000 )


      isym = 21     120 deg rotation - cart. axis [1,1,1]        

 cryst.   s(21) = (     0          1          0      )
                  (     0          0          1      )
                  (     1          0          0      )

 cart.    s(21) = (  0.0000000  0.0000000  1.0000000 )
                  (  1.0000000  0.0000000  0.0000000 )
                  (  0.0000000  1.0000000  0.0000000 )


      isym = 22     120 deg rotation - cart. axis [-1,1,-1]      

 cryst.   s(22) = (    -1          0          1      )
                  (    -1          1          0      )
                  (    -1          0          0      )

 cart.    s(22) = (  0.0000000  0.0000000  1.0000000 )
                  ( -1.0000000  0.0000000  0.0000000 )
                  (  0.0000000 -1.0000000  0.0000000 )


      isym = 23     120 deg rotation - cart. axis [1,-1,-1]      

 cryst.   s(23) = (     1          0         -1      )
                  (     0          0         -1      )
                  (     0          1         -1      )

 cart.    s(23) = (  0.0000000  0.0000000 -1.0000000 )
                  ( -1.0000000  0.0000000  0.0000000 )
                  (  0.0000000  1.0000000  0.0000000 )


      isym = 24     120 deg rotation - cart. axis [-1,-1,1]      

 cryst.   s(24) = (     0         -1          0      )
                  (     1         -1          0      )
                  (     0         -1          1      )

 cart.    s(24) = (  0.0000000  0.0000000 -1.0000000 )
                  (  1.0000000  0.0000000  0.0000000 )
                  (  0.0000000 -1.0000000  0.0000000 )


      isym = 25     inversion                                    

 cryst.   s(25) = (    -1          0          0      )    f =( -0.2500000 )
                  (     0         -1          0      )       ( -0.2500000 )
                  (     0          0         -1      )       ( -0.2500000 )

 cart.    s(25) = ( -1.0000000  0.0000000  0.0000000 )    f =( -0.3535534 )
                  (  0.0000000 -1.0000000  0.0000000 )       ( -0.3535534 )
                  (  0.0000000  0.0000000 -1.0000000 )       ( -0.3535534 )


      isym = 26     inv. 180 deg rotation - cart. axis [0,0,1]   

 cryst.   s(26) = (     0         -1          1      )    f =( -0.2500000 )
                  (    -1          0          1      )       ( -0.2500000 )
                  (     0          0          1      )       ( -0.2500000 )

 cart.    s(26) = (  1.0000000  0.0000000  0.0000000 )    f =( -0.3535534 )
                  (  0.0000000  1.0000000  0.0000000 )       ( -0.3535534 )
                  (  0.0000000  0.0000000 -1.0000000 )       ( -0.3535534 )


      isym = 27     inv. 180 deg rotation - cart. axis [0,1,0]   

 cryst.   s(27) = (     0          1         -1      )    f =( -0.2500000 )
                  (     0          1          0      )       ( -0.2500000 )
                  (    -1          1          0      )       ( -0.2500000 )

 cart.    s(27) = (  1.0000000  0.0000000  0.0000000 )    f =( -0.3535534 )
                  (  0.0000000 -1.0000000  0.0000000 )       ( -0.3535534 )
                  (  0.0000000  0.0000000  1.0000000 )       ( -0.3535534 )


      isym = 28     inv. 180 deg rotation - cart. axis [1,0,0]   

 cryst.   s(28) = (     1          0          0      )    f =( -0.2500000 )
                  (     1          0         -1      )       ( -0.2500000 )
                  (     1         -1          0      )       ( -0.2500000 )

 cart.    s(28) = ( -1.0000000  0.0000000  0.0000000 )    f =( -0.3535534 )
                  (  0.0000000  1.0000000  0.0000000 )       ( -0.3535534 )
                  (  0.0000000  0.0000000  1.0000000 )       ( -0.3535534 )


      isym = 29     inv. 180 deg rotation - cart. axis [1,1,0]   

 cryst.   s(29) = (     1          0         -1      )
                  (     0          1         -1      )
                  (     0          0         -1      )

 cart.    s(29) = (  0.0000000 -1.0000000  0.0000000 )
                  ( -1.0000000  0.0000000  0.0000000 )
                  (  0.0000000  0.0000000  1.0000000 )


      isym = 30     inv. 180 deg rotation - cart. axis [1,-1,0]  

 cryst.   s(30) = (     0          1          0      )
                  (     1          0          0      )
                  (     0          0          1      )

 cart.    s(30) = (  0.0000000  1.0000000  0.0000000 )
                  (  1.0000000  0.0000000  0.0000000 )
                  (  0.0000000  0.0000000  1.0000000 )


      isym = 31     inv.  90 deg rotation - cart. axis [0,0,-1]  

 cryst.   s(31) = (     0         -1          0      )
                  (     0         -1          1      )
                  (     1         -1          0      )

 cart.    s(31) = (  0.0000000 -1.0000000  0.0000000 )
                  (  1.0000000  0.0000000  0.0000000 )
                  (  0.0000000  0.0000000 -1.0000000 )


      isym = 32     inv.  90 deg rotation - cart. axis [0,0,1]   

 cryst.   s(32) = (    -1          0          1      )
                  (    -1          0          0      )
                  (    -1          1          0      )

 cart.    s(32) = (  0.0000000  1.0000000  0.0000000 )
                  ( -1.0000000  0.0000000  0.0000000 )
                  (  0.0000000  0.0000000 -1.0000000 )


      isym = 33     inv. 180 deg rotation - cart. axis [1,0,1]   

 cryst.   s(33) = (     1         -1          0      )
                  (     0         -1          0      )
                  (     0         -1          1      )

 cart.    s(33) = (  0.0000000  0.0000000 -1.0000000 )
                  (  0.0000000  1.0000000  0.0000000 )
                  ( -1.0000000  0.0000000  0.0000000 )


      isym = 34     inv. 180 deg rotation - cart. axis [-1,0,1]  

 cryst.   s(34) = (     0          0          1      )
                  (     0          1          0      )
                  (     1          0          0      )

 cart.    s(34) = (  0.0000000  0.0000000  1.0000000 )
                  (  0.0000000  1.0000000  0.0000000 )
                  (  1.0000000  0.0000000  0.0000000 )


      isym = 35     inv.  90 deg rotation - cart. axis [0,1,0]   

 cryst.   s(35) = (     0          0         -1      )
                  (     1          0         -1      )
                  (     0          1         -1      )

 cart.    s(35) = (  0.0000000  0.0000000 -1.0000000 )
                  (  0.0000000 -1.0000000  0.0000000 )
                  (  1.0000000  0.0000000  0.0000000 )


      isym = 36     inv.  90 deg rotation - cart. axis [0,-1,0]  

 cryst.   s(36) = (    -1          1          0      )
                  (    -1          0          1      )
                  (    -1          0          0      )

 cart.    s(36) = (  0.0000000  0.0000000  1.0000000 )
                  (  0.0000000 -1.0000000  0.0000000 )
                  ( -1.0000000  0.0000000  0.0000000 )


      isym = 37     inv. 180 deg rotation - cart. axis [0,1,1]   

 cryst.   s(37) = (    -1          0          0      )
                  (    -1          1          0      )
                  (    -1          0          1      )

 cart.    s(37) = (  1.0000000  0.0000000  0.0000000 )
                  (  0.0000000  0.0000000 -1.0000000 )
                  (  0.0000000 -1.0000000  0.0000000 )


      isym = 38     inv. 180 deg rotation - cart. axis [0,1,-1]  

 cryst.   s(38) = (     1          0          0      )
                  (     0          0          1      )
                  (     0          1          0      )

 cart.    s(38) = (  1.0000000  0.0000000  0.0000000 )
                  (  0.0000000  0.0000000  1.0000000 )
                  (  0.0000000  1.0000000  0.0000000 )


      isym = 39     inv.  90 deg rotation - cart. axis [-1,0,0]  

 cryst.   s(39) = (     0          1         -1      )
                  (     0          0         -1      )
                  (     1          0         -1      )

 cart.    s(39) = ( -1.0000000  0.0000000  0.0000000 )
                  (  0.0000000  0.0000000 -1.0000000 )
                  (  0.0000000  1.0000000  0.0000000 )


      isym = 40     inv.  90 deg rotation - cart. axis [1,0,0]   

 cryst.   s(40) = (     0         -1          1      )
                  (     1         -1          0      )
                  (     0         -1          0      )

 cart.    s(40) = ( -1.0000000  0.0000000  0.0000000 )
                  (  0.0000000  0.0000000  1.0000000 )
                  (  0.0000000 -1.0000000  0.0000000 )


      isym = 41     inv. 120 deg rotation - cart. axis [-1,-1,-1]

 cryst.   s(41) = (     0          0         -1      )    f =( -0.2500000 )
                  (    -1          0          0      )       ( -0.2500000 )
                  (     0         -1          0      )       ( -0.2500000 )

 cart.    s(41) = (  0.0000000 -1.0000000  0.0000000 )    f =( -0.3535534 )
                  (  0.0000000  0.0000000 -1.0000000 )       ( -0.3535534 )
                  ( -1.0000000  0.0000000  0.0000000 )       ( -0.3535534 )


      isym = 42     inv. 120 deg rotation - cart. axis [-1,1,1]  

 cryst.   s(42) = (    -1          1          0      )    f =( -0.2500000 )
                  (     0          1         -1      )       ( -0.2500000 )
                  (     0          1          0      )       ( -0.2500000 )

 cart.    s(42) = (  0.0000000  1.0000000  0.0000000 )    f =( -0.3535534 )
                  (  0.0000000  0.0000000 -1.0000000 )       ( -0.3535534 )
                  (  1.0000000  0.0000000  0.0000000 )       ( -0.3535534 )


      isym = 43     inv. 120 deg rotation - cart. axis [1,1,-1]  

 cryst.   s(43) = (     1         -1          0      )    f =( -0.2500000 )
                  (     1          0          0      )       ( -0.2500000 )
                  (     1          0         -1      )       ( -0.2500000 )

 cart.    s(43) = (  0.0000000 -1.0000000  0.0000000 )    f =( -0.3535534 )
                  (  0.0000000  0.0000000  1.0000000 )       ( -0.3535534 )
                  (  1.0000000  0.0000000  0.0000000 )       ( -0.3535534 )


      isym = 44     inv. 120 deg rotation - cart. axis [1,-1,1]  

 cryst.   s(44) = (     0          0          1      )    f =( -0.2500000 )
                  (     0         -1          1      )       ( -0.2500000 )
                  (    -1          0          1      )       ( -0.2500000 )

 cart.    s(44) = (  0.0000000  1.0000000  0.0000000 )    f =( -0.3535534 )
                  (  0.0000000  0.0000000  1.0000000 )       ( -0.3535534 )
                  ( -1.0000000  0.0000000  0.0000000 )       ( -0.3535534 )


      isym = 45     inv. 120 deg rotation - cart. axis [1,1,1]   

 cryst.   s(45) = (     0         -1          0      )    f =( -0.2500000 )
                  (     0          0         -1      )       ( -0.2500000 )
                  (    -1          0          0      )       ( -0.2500000 )

 cart.    s(45) = (  0.0000000  0.0000000 -1.0000000 )    f =( -0.3535534 )
                  ( -1.0000000  0.0000000  0.0000000 )       ( -0.3535534 )
                  (  0.0000000 -1.0000000  0.0000000 )       ( -0.3535534 )


      isym = 46     inv. 120 deg rotation - cart. axis [-1,1,-1] 

 cryst.   s(46) = (     1          0         -1      )    f =( -0.2500000 )
                  (     1         -1          0      )       ( -0.2500000 )
                  (     1          0          0      )       ( -0.2500000 )

 cart.    s(46) = (  0.0000000  0.0000000 -1.0000000 )    f =( -0.3535534 )
                  (  1.0000000  0.0000000  0.0000000 )       ( -0.3535534 )
                  (  0.0000000  1.0000000  0.0000000 )       ( -0.3535534 )


      isym = 47     inv. 120 deg rotation - cart. axis [1,-1,-1] 

 cryst.   s(47) = (    -1          0          1      )    f =( -0.2500000 )
                  (     0          0          1      )       ( -0.2500000 )
                  (     0         -1          1      )       ( -0.2500000 )

 cart.    s(47) = (  0.0000000  0.0000000  1.0000000 )    f =( -0.3535534 )
                  (  1.0000000  0.0000000  0.0000000 )       ( -0.3535534 )
                  (  0.0000000 -1.0000000  0.0000000 )       ( -0.3535534 )


      isym = 48     inv. 120 deg rotation - cart. axis [-1,-1,1] 

 cryst.   s(48) = (     0          1          0      )    f =( -0.2500000 )
                  (    -1          1          0      )       ( -0.2500000 )
                  (     0          1         -1      )       ( -0.2500000 )

 cart.    s(48) = (  0.0000000  0.0000000  1.0000000 )    f =( -0.3535534 )
                  ( -1.0000000  0.0000000  0.0000000 )       ( -0.3535534 )
                  (  0.0000000  1.0000000  0.0000000 )       ( -0.3535534 )


   Cartesian axes

     site n.     atom                  positions (alat units)
         1           Er  tau(   1) = (   0.0000000   0.0000000   0.7071068  )
         2           Er  tau(   2) = (   0.3535534   1.0606602   0.3535534  )

   Crystallographic axes

     site n.     atom                  positions (cryst. coord.)
         1           Er  tau(   1) = (  0.5000000  0.5000000 -0.5000000  )
         2           Er  tau(   2) = (  0.7500000 -0.2500000  0.7500000  )

     number of k points=   124  Fermi-Dirac smearing, width (Ry)=  0.0045
                       cart. coord. in units 2pi/alat
        k(    1) = (   0.0000000   0.0000000   0.0000000), wk =   0.0161290
        k(    2) = (   0.0000000   0.0252538   0.0000000), wk =   0.0161290
        k(    3) = (   0.0000000   0.0505076   0.0000000), wk =   0.0161290
        k(    4) = (   0.0000000   0.0757614   0.0000000), wk =   0.0161290
        k(    5) = (   0.0000000   0.1010153   0.0000000), wk =   0.0161290
        k(    6) = (   0.0000000   0.1262691   0.0000000), wk =   0.0161290
        k(    7) = (   0.0000000   0.1515229   0.0000000), wk =   0.0161290
        k(    8) = (   0.0000000   0.1767767   0.0000000), wk =   0.0161290
        k(    9) = (   0.0000000   0.2020305   0.0000000), wk =   0.0161290
        k(   10) = (   0.0000000   0.2272843   0.0000000), wk =   0.0161290
        k(   11) = (   0.0000000   0.2525381   0.0000000), wk =   0.0161290
        k(   12) = (   0.0000000   0.2777919   0.0000000), wk =   0.0161290
        k(   13) = (   0.0000000   0.3030458   0.0000000), wk =   0.0161290
        k(   14) = (   0.0000000   0.3282996   0.0000000), wk =   0.0161290
        k(   15) = (   0.0000000   0.3535534   0.0000000), wk =   0.0161290
        k(   16) = (   0.0000000   0.3788072   0.0000000), wk =   0.0161290
        k(   17) = (   0.0000000   0.4040610   0.0000000), wk =   0.0161290
        k(   18) = (   0.0000000   0.4293148   0.0000000), wk =   0.0161290
        k(   19) = (   0.0000000   0.4545686   0.0000000), wk =   0.0161290
        k(   20) = (   0.0000000   0.4798225   0.0000000), wk =   0.0161290
        k(   21) = (   0.0000000   0.5050763   0.0000000), wk =   0.0161290
        k(   22) = (   0.0000000   0.5303301   0.0000000), wk =   0.0161290
        k(   23) = (   0.0000000   0.5555839   0.0000000), wk =   0.0161290
        k(   24) = (   0.0000000   0.5808377   0.0000000), wk =   0.0161290
        k(   25) = (   0.0000000   0.6060915   0.0000000), wk =   0.0161290
        k(   26) = (   0.0000000   0.6313453   0.0000000), wk =   0.0161290
        k(   27) = (   0.0000000   0.6565992   0.0000000), wk =   0.0161290
        k(   28) = (   0.0000000   0.6818530   0.0000000), wk =   0.0161290
        k(   29) = (   0.0000000   0.7071068   0.0000000), wk =   0.0161290
        k(   30) = (   0.0196419   0.7071068   0.0196419), wk =   0.0161290
        k(   31) = (   0.0392837   0.7071068   0.0392837), wk =   0.0161290
        k(   32) = (   0.0589256   0.7071068   0.0589256), wk =   0.0161290
        k(   33) = (   0.0785674   0.7071068   0.0785674), wk =   0.0161290
        k(   34) = (   0.0982093   0.7071068   0.0982093), wk =   0.0161290
        k(   35) = (   0.1178511   0.7071068   0.1178511), wk =   0.0161290
        k(   36) = (   0.1374930   0.7071068   0.1374930), wk =   0.0161290
        k(   37) = (   0.1571348   0.7071068   0.1571348), wk =   0.0161290
        k(   38) = (   0.1767767   0.7071068   0.1767767), wk =   0.0161290
        k(   39) = (   0.5303301   0.5303301   0.0000000), wk =   0.0161290
        k(   40) = (   0.5120428   0.5120428   0.0000000), wk =   0.0161290
        k(   41) = (   0.4937556   0.4937556  -0.0000000), wk =   0.0161290
        k(   42) = (   0.4754684   0.4754684   0.0000000), wk =   0.0161290
        k(   43) = (   0.4571811   0.4571811   0.0000000), wk =   0.0161290
        k(   44) = (   0.4388939   0.4388939   0.0000000), wk =   0.0161290
        k(   45) = (   0.4206066   0.4206066   0.0000000), wk =   0.0161290
        k(   46) = (   0.4023194   0.4023194   0.0000000), wk =   0.0161290
        k(   47) = (   0.3840321   0.3840321  -0.0000000), wk =   0.0161290
        k(   48) = (   0.3657449   0.3657449   0.0000000), wk =   0.0161290
        k(   49) = (   0.3474576   0.3474576   0.0000000), wk =   0.0161290
        k(   50) = (   0.3291704   0.3291704   0.0000000), wk =   0.0161290
        k(   51) = (   0.3108832   0.3108832   0.0000000), wk =   0.0161290
        k(   52) = (   0.2925959   0.2925959   0.0000000), wk =   0.0161290
        k(   53) = (   0.2743087   0.2743087  -0.0000000), wk =   0.0161290
        k(   54) = (   0.2560214   0.2560214   0.0000000), wk =   0.0161290
        k(   55) = (   0.2377342   0.2377342   0.0000000), wk =   0.0161290
        k(   56) = (   0.2194469   0.2194469   0.0000000), wk =   0.0161290
        k(   57) = (   0.2011597   0.2011597   0.0000000), wk =   0.0161290
        k(   58) = (   0.1828724   0.1828724  -0.0000000), wk =   0.0161290
        k(   59) = (   0.1645852   0.1645852  -0.0000000), wk =   0.0161290
        k(   60) = (   0.1462980   0.1462980   0.0000000), wk =   0.0161290
        k(   61) = (   0.1280107   0.1280107   0.0000000), wk =   0.0161290
        k(   62) = (   0.1097235   0.1097235   0.0000000), wk =   0.0161290
        k(   63) = (   0.0914362   0.0914362   0.0000000), wk =   0.0161290
        k(   64) = (   0.0731490   0.0731490  -0.0000000), wk =   0.0161290
        k(   65) = (   0.0548617   0.0548617  -0.0000000), wk =   0.0161290
        k(   66) = (   0.0365745   0.0365745   0.0000000), wk =   0.0161290
        k(   67) = (   0.0182872   0.0182872   0.0000000), wk =   0.0161290
        k(   68) = (   0.0000000   0.0000000   0.0000000), wk =   0.0161290
        k(   69) = (   0.0147314   0.0147314   0.0147314), wk =   0.0161290
        k(   70) = (   0.0294628   0.0294628   0.0294628), wk =   0.0161290
        k(   71) = (   0.0441942   0.0441942   0.0441942), wk =   0.0161290
        k(   72) = (   0.0589256   0.0589256   0.0589256), wk =   0.0161290
        k(   73) = (   0.0736570   0.0736570   0.0736570), wk =   0.0161290
        k(   74) = (   0.0883883   0.0883883   0.0883883), wk =   0.0161290
        k(   75) = (   0.1031197   0.1031197   0.1031197), wk =   0.0161290
        k(   76) = (   0.1178511   0.1178511   0.1178511), wk =   0.0161290
        k(   77) = (   0.1325825   0.1325825   0.1325825), wk =   0.0161290
        k(   78) = (   0.1473139   0.1473139   0.1473139), wk =   0.0161290
        k(   79) = (   0.1620453   0.1620453   0.1620453), wk =   0.0161290
        k(   80) = (   0.1767767   0.1767767   0.1767767), wk =   0.0161290
        k(   81) = (   0.1915081   0.1915081   0.1915081), wk =   0.0161290
        k(   82) = (   0.2062395   0.2062395   0.2062395), wk =   0.0161290
        k(   83) = (   0.2209709   0.2209709   0.2209709), wk =   0.0161290
        k(   84) = (   0.2357023   0.2357023   0.2357023), wk =   0.0161290
        k(   85) = (   0.2504337   0.2504337   0.2504337), wk =   0.0161290
        k(   86) = (   0.2651650   0.2651650   0.2651650), wk =   0.0161290
        k(   87) = (   0.2798964   0.2798964   0.2798964), wk =   0.0161290
        k(   88) = (   0.2946278   0.2946278   0.2946278), wk =   0.0161290
        k(   89) = (   0.3093592   0.3093592   0.3093592), wk =   0.0161290
        k(   90) = (   0.3240906   0.3240906   0.3240906), wk =   0.0161290
        k(   91) = (   0.3388220   0.3388220   0.3388220), wk =   0.0161290
        k(   92) = (   0.3535534   0.3535534   0.3535534), wk =   0.0161290
        k(   93) = (   0.3535534   0.3721615   0.3349453), wk =   0.0161290
        k(   94) = (   0.3535534   0.3907695   0.3163372), wk =   0.0161290
        k(   95) = (   0.3535534   0.4093776   0.2977292), wk =   0.0161290
        k(   96) = (   0.3535534   0.4279857   0.2791211), wk =   0.0161290
        k(   97) = (   0.3535534   0.4465938   0.2605130), wk =   0.0161290
        k(   98) = (   0.3535534   0.4652018   0.2419050), wk =   0.0161290
        k(   99) = (   0.3535534   0.4838099   0.2232969), wk =   0.0161290
        k(  100) = (   0.3535534   0.5024180   0.2046888), wk =   0.0161290
        k(  101) = (   0.3535534   0.5210260   0.1860807), wk =   0.0161290
        k(  102) = (   0.3535534   0.5396341   0.1674727), wk =   0.0161290
        k(  103) = (   0.3535534   0.5582422   0.1488646), wk =   0.0161290
        k(  104) = (   0.3535534   0.5768503   0.1302565), wk =   0.0161290
        k(  105) = (   0.3535534   0.5954583   0.1116484), wk =   0.0161290
        k(  106) = (   0.3535534   0.6140664   0.0930404), wk =   0.0161290
        k(  107) = (   0.3535534   0.6326745   0.0744323), wk =   0.0161290
        k(  108) = (   0.3535534   0.6512826   0.0558242), wk =   0.0161290
        k(  109) = (   0.3535534   0.6698906   0.0372161), wk =   0.0161290
        k(  110) = (   0.3535534   0.6884987   0.0186081), wk =   0.0161290
        k(  111) = (   0.3535534   0.7071068   0.0000000), wk =   0.0161290
        k(  112) = (   0.3263570   0.7071068   0.0000000), wk =   0.0161290
        k(  113) = (   0.2991606   0.7071068   0.0000000), wk =   0.0161290
        k(  114) = (   0.2719641   0.7071068  -0.0000000), wk =   0.0161290
        k(  115) = (   0.2447677   0.7071068   0.0000000), wk =   0.0161290
        k(  116) = (   0.2175713   0.7071068   0.0000000), wk =   0.0161290
        k(  117) = (   0.1903749   0.7071068   0.0000000), wk =   0.0161290
        k(  118) = (   0.1631785   0.7071068  -0.0000000), wk =   0.0161290
        k(  119) = (   0.1359821   0.7071068   0.0000000), wk =   0.0161290
        k(  120) = (   0.1087857   0.7071068   0.0000000), wk =   0.0161290
        k(  121) = (   0.0815892   0.7071068   0.0000000), wk =   0.0161290
        k(  122) = (   0.0543928   0.7071068   0.0000000), wk =   0.0161290
        k(  123) = (   0.0271964   0.7071068   0.0000000), wk =   0.0161290
        k(  124) = (   0.0000000   0.7071068   0.0000000), wk =   0.0161290

                       cryst. coord.
        k(    1) = (   0.0000000   0.0000000   0.0000000), wk =   0.0161290
        k(    2) = (   0.0178571   0.0000000   0.0178571), wk =   0.0161290
        k(    3) = (   0.0357143   0.0000000   0.0357143), wk =   0.0161290
        k(    4) = (   0.0535714   0.0000000   0.0535714), wk =   0.0161290
        k(    5) = (   0.0714286   0.0000000   0.0714286), wk =   0.0161290
        k(    6) = (   0.0892857   0.0000000   0.0892857), wk =   0.0161290
        k(    7) = (   0.1071429   0.0000000   0.1071429), wk =   0.0161290
        k(    8) = (   0.1250000   0.0000000   0.1250000), wk =   0.0161290
        k(    9) = (   0.1428571   0.0000000   0.1428571), wk =   0.0161290
        k(   10) = (   0.1607143   0.0000000   0.1607143), wk =   0.0161290
        k(   11) = (   0.1785714   0.0000000   0.1785714), wk =   0.0161290
        k(   12) = (   0.1964286   0.0000000   0.1964286), wk =   0.0161290
        k(   13) = (   0.2142857   0.0000000   0.2142857), wk =   0.0161290
        k(   14) = (   0.2321429   0.0000000   0.2321429), wk =   0.0161290
        k(   15) = (   0.2500000   0.0000000   0.2500000), wk =   0.0161290
        k(   16) = (   0.2678571   0.0000000   0.2678571), wk =   0.0161290
        k(   17) = (   0.2857143   0.0000000   0.2857143), wk =   0.0161290
        k(   18) = (   0.3035714   0.0000000   0.3035714), wk =   0.0161290
        k(   19) = (   0.3214286   0.0000000   0.3214286), wk =   0.0161290
        k(   20) = (   0.3392857   0.0000000   0.3392857), wk =   0.0161290
        k(   21) = (   0.3571429   0.0000000   0.3571429), wk =   0.0161290
        k(   22) = (   0.3750000   0.0000000   0.3750000), wk =   0.0161290
        k(   23) = (   0.3928571   0.0000000   0.3928571), wk =   0.0161290
        k(   24) = (   0.4107143   0.0000000   0.4107143), wk =   0.0161290
        k(   25) = (   0.4285714   0.0000000   0.4285714), wk =   0.0161290
        k(   26) = (   0.4464286   0.0000000   0.4464286), wk =   0.0161290
        k(   27) = (   0.4642857   0.0000000   0.4642857), wk =   0.0161290
        k(   28) = (   0.4821429   0.0000000   0.4821429), wk =   0.0161290
        k(   29) = (   0.5000000   0.0000000   0.5000000), wk =   0.0161290
        k(   30) = (   0.5138889   0.0277778   0.5138889), wk =   0.0161290
        k(   31) = (   0.5277778   0.0555556   0.5277778), wk =   0.0161290
        k(   32) = (   0.5416667   0.0833333   0.5416667), wk =   0.0161290
        k(   33) = (   0.5555556   0.1111111   0.5555556), wk =   0.0161290
        k(   34) = (   0.5694444   0.1388889   0.5694444), wk =   0.0161290
        k(   35) = (   0.5833333   0.1666667   0.5833333), wk =   0.0161290
        k(   36) = (   0.5972222   0.1944444   0.5972222), wk =   0.0161290
        k(   37) = (   0.6111111   0.2222222   0.6111111), wk =   0.0161290
        k(   38) = (   0.6250000   0.2500000   0.6250000), wk =   0.0161290
        k(   39) = (   0.3750000   0.3750000   0.7500000), wk =   0.0161290
        k(   40) = (   0.3620690   0.3620690   0.7241379), wk =   0.0161290
        k(   41) = (   0.3491379   0.3491379   0.6982759), wk =   0.0161290
        k(   42) = (   0.3362069   0.3362069   0.6724138), wk =   0.0161290
        k(   43) = (   0.3232759   0.3232759   0.6465517), wk =   0.0161290
        k(   44) = (   0.3103448   0.3103448   0.6206897), wk =   0.0161290
        k(   45) = (   0.2974138   0.2974138   0.5948276), wk =   0.0161290
        k(   46) = (   0.2844828   0.2844828   0.5689655), wk =   0.0161290
        k(   47) = (   0.2715517   0.2715517   0.5431034), wk =   0.0161290
        k(   48) = (   0.2586207   0.2586207   0.5172414), wk =   0.0161290
        k(   49) = (   0.2456897   0.2456897   0.4913793), wk =   0.0161290
        k(   50) = (   0.2327586   0.2327586   0.4655172), wk =   0.0161290
        k(   51) = (   0.2198276   0.2198276   0.4396552), wk =   0.0161290
        k(   52) = (   0.2068966   0.2068966   0.4137931), wk =   0.0161290
        k(   53) = (   0.1939655   0.1939655   0.3879310), wk =   0.0161290
        k(   54) = (   0.1810345   0.1810345   0.3620690), wk =   0.0161290
        k(   55) = (   0.1681034   0.1681034   0.3362069), wk =   0.0161290
        k(   56) = (   0.1551724   0.1551724   0.3103448), wk =   0.0161290
        k(   57) = (   0.1422414   0.1422414   0.2844828), wk =   0.0161290
        k(   58) = (   0.1293103   0.1293103   0.2586207), wk =   0.0161290
        k(   59) = (   0.1163793   0.1163793   0.2327586), wk =   0.0161290
        k(   60) = (   0.1034483   0.1034483   0.2068966), wk =   0.0161290
        k(   61) = (   0.0905172   0.0905172   0.1810345), wk =   0.0161290
        k(   62) = (   0.0775862   0.0775862   0.1551724), wk =   0.0161290
        k(   63) = (   0.0646552   0.0646552   0.1293103), wk =   0.0161290
        k(   64) = (   0.0517241   0.0517241   0.1034483), wk =   0.0161290
        k(   65) = (   0.0387931   0.0387931   0.0775862), wk =   0.0161290
        k(   66) = (   0.0258621   0.0258621   0.0517241), wk =   0.0161290
        k(   67) = (   0.0129310   0.0129310   0.0258621), wk =   0.0161290
        k(   68) = (   0.0000000   0.0000000   0.0000000), wk =   0.0161290
        k(   69) = (   0.0208333   0.0208333   0.0208333), wk =   0.0161290
        k(   70) = (   0.0416667   0.0416667   0.0416667), wk =   0.0161290
        k(   71) = (   0.0625000   0.0625000   0.0625000), wk =   0.0161290
        k(   72) = (   0.0833333   0.0833333   0.0833333), wk =   0.0161290
        k(   73) = (   0.1041667   0.1041667   0.1041667), wk =   0.0161290
        k(   74) = (   0.1250000   0.1250000   0.1250000), wk =   0.0161290
        k(   75) = (   0.1458333   0.1458333   0.1458333), wk =   0.0161290
        k(   76) = (   0.1666667   0.1666667   0.1666667), wk =   0.0161290
        k(   77) = (   0.1875000   0.1875000   0.1875000), wk =   0.0161290
        k(   78) = (   0.2083333   0.2083333   0.2083333), wk =   0.0161290
        k(   79) = (   0.2291667   0.2291667   0.2291667), wk =   0.0161290
        k(   80) = (   0.2500000   0.2500000   0.2500000), wk =   0.0161290
        k(   81) = (   0.2708333   0.2708333   0.2708333), wk =   0.0161290
        k(   82) = (   0.2916667   0.2916667   0.2916667), wk =   0.0161290
        k(   83) = (   0.3125000   0.3125000   0.3125000), wk =   0.0161290
        k(   84) = (   0.3333333   0.3333333   0.3333333), wk =   0.0161290
        k(   85) = (   0.3541667   0.3541667   0.3541667), wk =   0.0161290
        k(   86) = (   0.3750000   0.3750000   0.3750000), wk =   0.0161290
        k(   87) = (   0.3958333   0.3958333   0.3958333), wk =   0.0161290
        k(   88) = (   0.4166667   0.4166667   0.4166667), wk =   0.0161290
        k(   89) = (   0.4375000   0.4375000   0.4375000), wk =   0.0161290
        k(   90) = (   0.4583333   0.4583333   0.4583333), wk =   0.0161290
        k(   91) = (   0.4791667   0.4791667   0.4791667), wk =   0.0161290
        k(   92) = (   0.5000000   0.5000000   0.5000000), wk =   0.0161290
        k(   93) = (   0.5000000   0.4868421   0.5131579), wk =   0.0161290
        k(   94) = (   0.5000000   0.4736842   0.5263158), wk =   0.0161290
        k(   95) = (   0.5000000   0.4605263   0.5394737), wk =   0.0161290
        k(   96) = (   0.5000000   0.4473684   0.5526316), wk =   0.0161290
        k(   97) = (   0.5000000   0.4342105   0.5657895), wk =   0.0161290
        k(   98) = (   0.5000000   0.4210526   0.5789474), wk =   0.0161290
        k(   99) = (   0.5000000   0.4078947   0.5921053), wk =   0.0161290
        k(  100) = (   0.5000000   0.3947368   0.6052632), wk =   0.0161290
        k(  101) = (   0.5000000   0.3815789   0.6184211), wk =   0.0161290
        k(  102) = (   0.5000000   0.3684211   0.6315789), wk =   0.0161290
        k(  103) = (   0.5000000   0.3552632   0.6447368), wk =   0.0161290
        k(  104) = (   0.5000000   0.3421053   0.6578947), wk =   0.0161290
        k(  105) = (   0.5000000   0.3289474   0.6710526), wk =   0.0161290
        k(  106) = (   0.5000000   0.3157895   0.6842105), wk =   0.0161290
        k(  107) = (   0.5000000   0.3026316   0.6973684), wk =   0.0161290
        k(  108) = (   0.5000000   0.2894737   0.7105263), wk =   0.0161290
        k(  109) = (   0.5000000   0.2763158   0.7236842), wk =   0.0161290
        k(  110) = (   0.5000000   0.2631579   0.7368421), wk =   0.0161290
        k(  111) = (   0.5000000   0.2500000   0.7500000), wk =   0.0161290
        k(  112) = (   0.5000000   0.2307692   0.7307692), wk =   0.0161290
        k(  113) = (   0.5000000   0.2115385   0.7115385), wk =   0.0161290
        k(  114) = (   0.5000000   0.1923077   0.6923077), wk =   0.0161290
        k(  115) = (   0.5000000   0.1730769   0.6730769), wk =   0.0161290
        k(  116) = (   0.5000000   0.1538462   0.6538462), wk =   0.0161290
        k(  117) = (   0.5000000   0.1346154   0.6346154), wk =   0.0161290
        k(  118) = (   0.5000000   0.1153846   0.6153846), wk =   0.0161290
        k(  119) = (   0.5000000   0.0961538   0.5961538), wk =   0.0161290
        k(  120) = (   0.5000000   0.0769231   0.5769231), wk =   0.0161290
        k(  121) = (   0.5000000   0.0576923   0.5576923), wk =   0.0161290
        k(  122) = (   0.5000000   0.0384615   0.5384615), wk =   0.0161290
        k(  123) = (   0.5000000   0.0192308   0.5192308), wk =   0.0161290
        k(  124) = (   0.5000000   0.0000000   0.5000000), wk =   0.0161290

     Dense  grid:   104867 G-vectors     FFT dimensions: (  72,  72,  72)

     Smooth grid:    37117 G-vectors     FFT dimensions: (  48,  48,  48)

     Dynamical RAM for                 wfc:       0.23 MB

     Dynamical RAM for     wfc (w. buffer):       0.23 MB

     Dynamical RAM for           str. fact:       0.20 MB

     Dynamical RAM for           local pot:       0.00 MB

     Dynamical RAM for          nlocal pot:       0.57 MB

     Dynamical RAM for                qrad:       3.45 MB

     Dynamical RAM for          rho,v,vnew:       1.67 MB

     Dynamical RAM for           G-vectors:       0.79 MB

     Dynamical RAM for          h,s,v(r/c):       0.03 MB

     Dynamical RAM for          <psi|beta>:       0.03 MB

     Dynamical RAM for                 psi:       0.46 MB

     Dynamical RAM for                hpsi:       0.46 MB

     Dynamical RAM for                spsi:       0.46 MB

     Dynamical RAM for      wfcinit/wfcrot:       1.23 MB

     Dynamical RAM for           addusdens:     111.42 MB

     Estimated static dynamical RAM per process >       9.07 MB

     Estimated max dynamical RAM per process >     120.50 MB

     Estimated total dynamical RAM >     963.98 MB

     The potential is recalculated from file :
     ./out/aiida.save/charge-density

     Starting wfcs are   64 randomized atomic wfcs
     Checking if some PAW data can be deallocated... 

     Band Structure Calculation
     Davidson diagonalization with overlap

     Computing kpt #:     1  of   124
     total cpu time spent up to now is        2.4 secs

     Computing kpt #:     2  of   124
     c_bands:  2 eigenvalues not converged
     total cpu time spent up to now is        3.3 secs

     Computing kpt #:     3  of   124
     c_bands:  2 eigenvalues not converged
     total cpu time spent up to now is        4.2 secs

     Computing kpt #:     4  of   124
     c_bands:  2 eigenvalues not converged
     total cpu time spent up to now is        5.0 secs

     Computing kpt #:     5  of   124
     total cpu time spent up to now is        5.9 secs

     Computing kpt #:     6  of   124
     total cpu time spent up to now is        6.7 secs

     Computing kpt #:     7  of   124
     total cpu time spent up to now is        7.5 secs

     Computing kpt #:     8  of   124
     c_bands:  1 eigenvalues not converged
     total cpu time spent up to now is        8.4 secs

     Computing kpt #:     9  of   124
     c_bands:  1 eigenvalues not converged
     total cpu time spent up to now is        9.2 secs

     Computing kpt #:    10  of   124
     c_bands:  1 eigenvalues not converged
     total cpu time spent up to now is       10.1 secs

     Computing kpt #:    11  of   124
     total cpu time spent up to now is       10.9 secs

     Computing kpt #:    12  of   124
     total cpu time spent up to now is       11.8 secs

     Computing kpt #:    13  of   124
     total cpu time spent up to now is       12.7 secs

     Computing kpt #:    14  of   124
     c_bands:  1 eigenvalues not converged
     total cpu time spent up to now is       13.6 secs

     Computing kpt #:    15  of   124
     total cpu time spent up to now is       14.3 secs

     Computing kpt #:    16  of   124
     total cpu time spent up to now is       15.0 secs

     Computing kpt #:    17  of   124
     total cpu time spent up to now is       15.7 secs

     Computing kpt #:    18  of   124
     total cpu time spent up to now is       16.4 secs

     Computing kpt #:    19  of   124
     total cpu time spent up to now is       17.1 secs

     Computing kpt #:    20  of   124
     total cpu time spent up to now is       17.7 secs

     Computing kpt #:    21  of   124
     total cpu time spent up to now is       18.3 secs

     Computing kpt #:    22  of   124
     total cpu time spent up to now is       19.0 secs

     Computing kpt #:    23  of   124
     total cpu time spent up to now is       19.6 secs

     Computing kpt #:    24  of   124
     total cpu time spent up to now is       20.1 secs

     Computing kpt #:    25  of   124
     total cpu time spent up to now is       20.7 secs

     Computing kpt #:    26  of   124
     total cpu time spent up to now is       21.3 secs

     Computing kpt #:    27  of   124
     total cpu time spent up to now is       21.9 secs

     Computing kpt #:    28  of   124
     total cpu time spent up to now is       22.5 secs

     Computing kpt #:    29  of   124
     total cpu time spent up to now is       23.0 secs

     Computing kpt #:    30  of   124
     total cpu time spent up to now is       23.6 secs

     Computing kpt #:    31  of   124
     total cpu time spent up to now is       24.2 secs

     Computing kpt #:    32  of   124
     total cpu time spent up to now is       24.8 secs

     Computing kpt #:    33  of   124
     total cpu time spent up to now is       25.4 secs

     Computing kpt #:    34  of   124
     total cpu time spent up to now is       25.9 secs

     Computing kpt #:    35  of   124
     total cpu time spent up to now is       26.5 secs

     Computing kpt #:    36  of   124
     total cpu time spent up to now is       27.1 secs

     Computing kpt #:    37  of   124
     total cpu time spent up to now is       27.7 secs

     Computing kpt #:    38  of   124
     total cpu time spent up to now is       28.3 secs

     Computing kpt #:    39  of   124
     total cpu time spent up to now is       28.8 secs

     Computing kpt #:    40  of   124
     total cpu time spent up to now is       29.4 secs

     Computing kpt #:    41  of   124
     total cpu time spent up to now is       30.0 secs

     Computing kpt #:    42  of   124
     total cpu time spent up to now is       30.6 secs

     Computing kpt #:    43  of   124
     total cpu time spent up to now is       31.2 secs

     Computing kpt #:    44  of   124
     total cpu time spent up to now is       31.8 secs

     Computing kpt #:    45  of   124
     total cpu time spent up to now is       32.5 secs

     Computing kpt #:    46  of   124
     total cpu time spent up to now is       33.2 secs

     Computing kpt #:    47  of   124
     total cpu time spent up to now is       33.8 secs

     Computing kpt #:    48  of   124
     c_bands:  1 eigenvalues not converged
     total cpu time spent up to now is       34.7 secs

     Computing kpt #:    49  of   124
     c_bands:  1 eigenvalues not converged
     total cpu time spent up to now is       35.7 secs

     Computing kpt #:    50  of   124
     total cpu time spent up to now is       36.4 secs

     Computing kpt #:    51  of   124
     total cpu time spent up to now is       37.1 secs

     Computing kpt #:    52  of   124
     total cpu time spent up to now is       37.9 secs

     Computing kpt #:    53  of   124
     total cpu time spent up to now is       38.7 secs

     Computing kpt #:    54  of   124
     total cpu time spent up to now is       39.5 secs

     Computing kpt #:    55  of   124
     total cpu time spent up to now is       40.2 secs

     Computing kpt #:    56  of   124
     total cpu time spent up to now is       41.0 secs

     Computing kpt #:    57  of   124
     total cpu time spent up to now is       41.7 secs

     Computing kpt #:    58  of   124
     total cpu time spent up to now is       42.5 secs

     Computing kpt #:    59  of   124
     total cpu time spent up to now is       43.3 secs

     Computing kpt #:    60  of   124
     total cpu time spent up to now is       44.1 secs

     Computing kpt #:    61  of   124
     total cpu time spent up to now is       44.9 secs

     Computing kpt #:    62  of   124
     total cpu time spent up to now is       45.8 secs

     Computing kpt #:    63  of   124
     total cpu time spent up to now is       46.6 secs

     Computing kpt #:    64  of   124
     total cpu time spent up to now is       47.4 secs

     Computing kpt #:    65  of   124
     c_bands:  1 eigenvalues not converged
     total cpu time spent up to now is       48.3 secs

     Computing kpt #:    66  of   124
     total cpu time spent up to now is       49.2 secs

     Computing kpt #:    67  of   124
     total cpu time spent up to now is       50.0 secs

     Computing kpt #:    68  of   124
     total cpu time spent up to now is       50.8 secs

     Computing kpt #:    69  of   124
     total cpu time spent up to now is       51.7 secs

     Computing kpt #:    70  of   124
     c_bands:  1 eigenvalues not converged
     total cpu time spent up to now is       52.5 secs

     Computing kpt #:    71  of   124
     total cpu time spent up to now is       53.2 secs

     Computing kpt #:    72  of   124
     total cpu time spent up to now is       54.0 secs

     Computing kpt #:    73  of   124
     total cpu time spent up to now is       54.8 secs

     Computing kpt #:    74  of   124
     total cpu time spent up to now is       55.6 secs

     Computing kpt #:    75  of   124
     total cpu time spent up to now is       56.3 secs

     Computing kpt #:    76  of   124
     total cpu time spent up to now is       57.1 secs

     Computing kpt #:    77  of   124
     total cpu time spent up to now is       57.8 secs

     Computing kpt #:    78  of   124
     total cpu time spent up to now is       58.5 secs

     Computing kpt #:    79  of   124
     total cpu time spent up to now is       59.3 secs

     Computing kpt #:    80  of   124
     total cpu time spent up to now is       60.0 secs

     Computing kpt #:    81  of   124
     total cpu time spent up to now is       60.8 secs

     Computing kpt #:    82  of   124
     total cpu time spent up to now is       61.4 secs

     Computing kpt #:    83  of   124
     total cpu time spent up to now is       62.1 secs

     Computing kpt #:    84  of   124
     total cpu time spent up to now is       62.9 secs

     Computing kpt #:    85  of   124
     total cpu time spent up to now is       63.8 secs

     Computing kpt #:    86  of   124
     total cpu time spent up to now is       64.6 secs

     Computing kpt #:    87  of   124
     total cpu time spent up to now is       65.5 secs

     Computing kpt #:    88  of   124
     total cpu time spent up to now is       66.2 secs

     Computing kpt #:    89  of   124
     c_bands:  1 eigenvalues not converged
     total cpu time spent up to now is       67.1 secs

     Computing kpt #:    90  of   124
     total cpu time spent up to now is       67.9 secs

     Computing kpt #:    91  of   124
     c_bands:  1 eigenvalues not converged
     total cpu time spent up to now is       68.8 secs

     Computing kpt #:    92  of   124
     total cpu time spent up to now is       69.6 secs

     Computing kpt #:    93  of   124
     total cpu time spent up to now is       70.4 secs

     Computing kpt #:    94  of   124
     total cpu time spent up to now is       71.3 secs

     Computing kpt #:    95  of   124
     total cpu time spent up to now is       72.1 secs

     Computing kpt #:    96  of   124
     total cpu time spent up to now is       73.0 secs

     Computing kpt #:    97  of   124
     total cpu time spent up to now is       73.8 secs

     Computing kpt #:    98  of   124
     total cpu time spent up to now is       74.8 secs

     Computing kpt #:    99  of   124
     total cpu time spent up to now is       75.5 secs

     Computing kpt #:   100  of   124
     total cpu time spent up to now is       76.2 secs

     Computing kpt #:   101  of   124
     total cpu time spent up to now is       77.0 secs

     Computing kpt #:   102  of   124
     total cpu time spent up to now is       77.8 secs

     Computing kpt #:   103  of   124
     total cpu time spent up to now is       78.5 secs

     Computing kpt #:   104  of   124
     total cpu time spent up to now is       79.2 secs

     Computing kpt #:   105  of   124
     total cpu time spent up to now is       79.9 secs

     Computing kpt #:   106  of   124
     total cpu time spent up to now is       80.6 secs

     Computing kpt #:   107  of   124
     total cpu time spent up to now is       81.2 secs

     Computing kpt #:   108  of   124
     total cpu time spent up to now is       81.8 secs

     Computing kpt #:   109  of   124
     total cpu time spent up to now is       82.6 secs

     Computing kpt #:   110  of   124
     total cpu time spent up to now is       83.2 secs

     Computing kpt #:   111  of   124
     total cpu time spent up to now is       83.8 secs

     Computing kpt #:   112  of   124
     total cpu time spent up to now is       84.5 secs

     Computing kpt #:   113  of   124
     total cpu time spent up to now is       85.1 secs

     Computing kpt #:   114  of   124
     total cpu time spent up to now is       85.7 secs

     Computing kpt #:   115  of   124
     total cpu time spent up to now is       86.3 secs

     Computing kpt #:   116  of   124
     total cpu time spent up to now is       87.0 secs

     Computing kpt #:   117  of   124
     total cpu time spent up to now is       87.6 secs

     Computing kpt #:   118  of   124
     total cpu time spent up to now is       88.3 secs

     Computing kpt #:   119  of   124
     total cpu time spent up to now is       88.9 secs

     Computing kpt #:   120  of   124
     total cpu time spent up to now is       89.6 secs

     Computing kpt #:   121  of   124
     total cpu time spent up to now is       90.2 secs

     Computing kpt #:   122  of   124
     total cpu time spent up to now is       90.8 secs

     Computing kpt #:   123  of   124
     total cpu time spent up to now is       91.3 secs

     Computing kpt #:   124  of   124
     total cpu time spent up to now is       91.8 secs

     ethr =  2.27E-09,  avg # of iterations = 83.3

     total cpu time spent up to now is       91.8 secs

     End of band structure calculation

          k = 0.0000 0.0000 0.0000 (  4645 PWs)   bands (ev):

   -45.3425 -45.3279 -19.8349 -19.8349 -19.8349 -19.7269 -19.7269 -19.7269
     0.3527   3.5456   3.5637   3.5637   3.5637   3.5778   3.5778   3.5778
     3.6184   3.6184   3.6184   3.6373   3.6387   3.6387   3.6387   4.6062
     4.6062   4.6062

          k = 0.0000 0.0253 0.0000 (  4645 PWs)   bands (ev):

   -45.3425 -45.3279 -19.8349 -19.8349 -19.8348 -19.7269 -19.7268 -19.7268
     0.3556   3.5456   3.5636   3.5637   3.5637   3.5778   3.5779   3.5780
     3.6182   3.6182   3.6184   3.6373   3.6385   3.6387   3.6387   4.5963
     4.6069   4.6069

          k = 0.0000 0.0505 0.0000 (  4641 PWs)   bands (ev):

   -45.3424 -45.3279 -19.8351 -19.8351 -19.8345 -19.7272 -19.7266 -19.7266
     0.3642   3.5455   3.5634   3.5634   3.5638   3.5777   3.5783   3.5783
     3.6178   3.6178   3.6184   3.6373   3.6378   3.6388   3.6388   4.5701
     4.6090   4.6091

          k = 0.0000 0.0758 0.0000 (  4645 PWs)   bands (ev):

   -45.3424 -45.3280 -19.8355 -19.8355 -19.8341 -19.7277 -19.7262 -19.7262
     0.3786   3.5454   3.5630   3.5630   3.5638   3.5776   3.5789   3.5789
     3.6171   3.6171   3.6185   3.6368   3.6372   3.6389   3.6389   4.5336
     4.6123   4.6123

          k = 0.0000 0.1010 0.0000 (  4629 PWs)   bands (ev):

   -45.3423 -45.3281 -19.8360 -19.8360 -19.8335 -19.7283 -19.7257 -19.7257
     0.3987   3.5453   3.5625   3.5625   3.5639   3.5775   3.5796   3.5796
     3.6161   3.6161   3.6186   3.6354   3.6371   3.6390   3.6390   4.4903
     4.6171   4.6171

          k = 0.0000 0.1263 0.0000 (  4625 PWs)   bands (ev):

   -45.3422 -45.3282 -19.8366 -19.8366 -19.8328 -19.7290 -19.7251 -19.7251
     0.4245   3.5451   3.5620   3.5620   3.5640   3.5773   3.5805   3.5805
     3.6150   3.6150   3.6188   3.6337   3.6370   3.6391   3.6391   4.4425
     4.6232   4.6232

          k = 0.0000 0.1515 0.0000 (  4637 PWs)   bands (ev):

   -45.3421 -45.3283 -19.8374 -19.8374 -19.8319 -19.7300 -19.7244 -19.7244
     0.4560   3.5449   3.5614   3.5614   3.5642   3.5771   3.5813   3.5814
     3.6138   3.6138   3.6190   3.6317   3.6368   3.6391   3.6391   4.3912
     4.6305   4.6305

          k = 0.0000 0.1768 0.0000 (  4649 PWs)   bands (ev):

   -45.3419 -45.3284 -19.8382 -19.8382 -19.8309 -19.7311 -19.7235 -19.7235
     0.4931   3.5446   3.5608   3.5608   3.5643   3.5768   3.5823   3.5823
     3.6125   3.6125   3.6192   3.6294   3.6366   3.6391   3.6391   4.3376
     4.6392   4.6392

          k = 0.0000 0.2020 0.0000 (  4641 PWs)   bands (ev):

   -45.3418 -45.3286 -19.8391 -19.8391 -19.8297 -19.7324 -19.7226 -19.7226
     0.5359   3.5443   3.5602   3.5602   3.5645   3.5764   3.5831   3.5832
     3.6111   3.6111   3.6195   3.6268   3.6364   3.6389   3.6389   4.2822
     4.6492   4.6492

          k = 0.0000 0.2273 0.0000 (  4645 PWs)   bands (ev):

   -45.3416 -45.3288 -19.8401 -19.8401 -19.8283 -19.7338 -19.7216 -19.7216
     0.5842   3.5440   3.5597   3.5597   3.5647   3.5759   3.5840   3.5840
     3.6098   3.6098   3.6197   3.6242   3.6360   3.6387   3.6387   4.2257
     4.6603   4.6606

          k = 0.0000 0.2525 0.0000 (  4625 PWs)   bands (ev):

   -45.3414 -45.3290 -19.8411 -19.8411 -19.8268 -19.7354 -19.7206 -19.7206
     0.6380   3.5437   3.5592   3.5592   3.5649   3.5752   3.5846   3.5846
     3.6086   3.6086   3.6201   3.6213   3.6356   3.6383   3.6383   4.1685
     4.6559   4.6726

          k = 0.0000 0.2778 0.0000 (  4617 PWs)   bands (ev):

   -45.3411 -45.3292 -19.8422 -19.8422 -19.8252 -19.7371 -19.7195 -19.7195
     0.6972   3.5434   3.5588   3.5588   3.5652   3.5743   3.5851   3.5851
     3.6075   3.6075   3.6185   3.6204   3.6351   3.6378   3.6378   4.1110
     4.6056   4.6859

          k = 0.0000 0.3030 0.0000 (  4624 PWs)   bands (ev):

   -45.3409 -45.3295 -19.8433 -19.8433 -19.8234 -19.7390 -19.7184 -19.7184
     0.7618   3.5431   3.5584   3.5584   3.5655   3.5730   3.5853   3.5853
     3.6067   3.6067   3.6155   3.6207   3.6345   3.6372   3.6372   4.0534
     4.5467   4.7002

          k = 0.0000 0.3283 0.0000 (  4632 PWs)   bands (ev):

   -45.3406 -45.3297 -19.8445 -19.8445 -19.8215 -19.7410 -19.7173 -19.7173
     0.8317   3.5428   3.5581   3.5581   3.5659   3.5712   3.5853   3.5853
     3.6062   3.6062   3.6125   3.6211   3.6337   3.6365   3.6365   3.9956
     4.4800   4.6557

          k = 0.0000 0.3536 0.0000 (  4632 PWs)   bands (ev):

   -45.3404 -45.3300 -19.8456 -19.8456 -19.8195 -19.7432 -19.7162 -19.7162
     0.9068   3.5426   3.5579   3.5579   3.5663   3.5683   3.5849   3.5849
     3.6060   3.6060   3.6096   3.6214   3.6328   3.6357   3.6357   3.9375
     4.4069   4.5766

          k = 0.0000 0.3788 0.0000 (  4632 PWs)   bands (ev):

   -45.3401 -45.3303 -19.8467 -19.8467 -19.8173 -19.7454 -19.7151 -19.7151
     0.9870   3.5424   3.5578   3.5578   3.5637   3.5667   3.5841   3.5841
     3.6061   3.6061   3.6067   3.6218   3.6317   3.6348   3.6348   3.8790
     4.3296   4.5003

          k = 0.0000 0.4041 0.0000 (  4628 PWs)   bands (ev):

   -45.3397 -45.3306 -19.8477 -19.8477 -19.8151 -19.7478 -19.7140 -19.7140
     1.0722   3.5423   3.5560   3.5577   3.5577   3.5672   3.5831   3.5832
     3.6039   3.6065   3.6065   3.6221   3.6304   3.6338   3.6338   3.8198
     4.2506   4.4274

          k = 0.0000 0.4293 0.0000 (  4640 PWs)   bands (ev):

   -45.3394 -45.3310 -19.8487 -19.8487 -19.8127 -19.7503 -19.7130 -19.7130
     1.1622   3.5417   3.5423   3.5577   3.5577   3.5677   3.5819   3.5819
     3.6011   3.6071   3.6071   3.6225   3.6290   3.6328   3.6328   3.7612
     4.1735   4.3582

          k = 0.0000 0.4546 0.0000 (  4644 PWs)   bands (ev):

   -45.3391 -45.3313 -19.8497 -19.8497 -19.8102 -19.7528 -19.7121 -19.7121
     1.2570   3.5143   3.5425   3.5578   3.5578   3.5683   3.5806   3.5806
     3.5984   3.6079   3.6079   3.6228   3.6273   3.6317   3.6317   3.7075
     4.1018   4.2930

          k = 0.0000 0.4798 0.0000 (  4648 PWs)   bands (ev):

   -45.3387 -45.3317 -19.8506 -19.8506 -19.8077 -19.7555 -19.7112 -19.7112
     1.3563   3.4640   3.5429   3.5580   3.5580   3.5689   3.5792   3.5792
     3.5959   3.6088   3.6088   3.6231   3.6255   3.6305   3.6305   3.6666
     4.0387   4.2320

          k = 0.0000 0.5051 0.0000 (  4640 PWs)   bands (ev):

   -45.3384 -45.3320 -19.8514 -19.8514 -19.8050 -19.7582 -19.7103 -19.7103
     1.4600   3.3875   3.5435   3.5583   3.5583   3.5696   3.5777   3.5777
     3.5934   3.6098   3.6098   3.6233   3.6234   3.6293   3.6293   3.6415
     3.9862   4.1754

          k = 0.0000 0.5303 0.0000 (  4636 PWs)   bands (ev):

   -45.3380 -45.3324 -19.8522 -19.8522 -19.8023 -19.7610 -19.7096 -19.7096
     1.5680   3.2906   3.5444   3.5586   3.5586   3.5704   3.5762   3.5762
     3.5911   3.6109   3.6109   3.6189   3.6237   3.6281   3.6281   3.6288
     3.9446   4.1234

          k = 0.0000 0.5556 0.0000 (  4636 PWs)   bands (ev):

   -45.3376 -45.3328 -19.8528 -19.8528 -19.7995 -19.7639 -19.7089 -19.7089
     1.6799   3.1803   3.5457   3.5590   3.5590   3.5713   3.5748   3.5748
     3.5889   3.6107   3.6120   3.6120   3.6239   3.6250   3.6269   3.6269
     3.9134   4.0760

          k = 0.0000 0.5808 0.0000 (  4632 PWs)   bands (ev):

   -45.3372 -45.3332 -19.8534 -19.8534 -19.7966 -19.7668 -19.7084 -19.7084
     1.7955   3.0612   3.5474   3.5595   3.5595   3.5722   3.5734   3.5734
     3.5868   3.6021   3.6132   3.6132   3.6238   3.6241   3.6256   3.6256
     3.8918   4.0333

          k = 0.0000 0.6061 0.0000 (  4636 PWs)   bands (ev):

   -45.3368 -45.3336 -19.8539 -19.8539 -19.7937 -19.7697 -19.7079 -19.7079
     1.9146   2.9365   3.5497   3.5600   3.5600   3.5722   3.5722   3.5732
     3.5849   3.5939   3.6144   3.6144   3.6234   3.6242   3.6244   3.6244
     3.8785   3.9955

          k = 0.0000 0.6313 0.0000 (  4644 PWs)   bands (ev):

   -45.3364 -45.3340 -19.8543 -19.8543 -19.7908 -19.7727 -19.7075 -19.7075
     2.0368   2.8084   3.5526   3.5605   3.5605   3.5710   3.5710   3.5743
     3.5830   3.5860   3.6156   3.6156   3.6231   3.6231   3.6234   3.6242
     3.8728   3.9625

          k = 0.0000 0.6566 0.0000 (  4660 PWs)   bands (ev):

   -45.3360 -45.3344 -19.8545 -19.8545 -19.7878 -19.7757 -19.7072 -19.7072
     2.1617   2.6786   3.5562   3.5609   3.5609   3.5701   3.5701   3.5755
     3.5787   3.5813   3.6168   3.6168   3.6219   3.6219   3.6235   3.6242
     3.8737   3.9344

          k = 0.0000 0.6819 0.0000 (  4660 PWs)   bands (ev):

   -45.3356 -45.3348 -19.8547 -19.8547 -19.7848 -19.7788 -19.7071 -19.7071
     2.2890   2.5481   3.5606   3.5613   3.5613   3.5695   3.5695   3.5719
     3.5768   3.5797   3.6180   3.6180   3.6207   3.6207   3.6237   3.6241
     3.8807   3.9113

          k = 0.0000 0.7071 0.0000 (  4656 PWs)   bands (ev):

   -45.3352 -45.3352 -19.8548 -19.8548 -19.7818 -19.7818 -19.7070 -19.7070
     2.4179   2.4179   3.5614   3.5614   3.5659   3.5659   3.5693   3.5693
     3.5782   3.5782   3.6189   3.6189   3.6198   3.6198   3.6239   3.6239
     3.8934   3.8934

          k = 0.0196 0.7071 0.0196 (  4648 PWs)   bands (ev):

   -45.3352 -45.3352 -19.8548 -19.8547 -19.7820 -19.7816 -19.7071 -19.7070
     2.4160   2.4214   3.5614   3.5614   3.5652   3.5659   3.5693   3.5702
     3.5782   3.5783   3.6183   3.6190   3.6191   3.6198   3.6244   3.6245
     3.8866   3.8958

          k = 0.0393 0.7071 0.0393 (  4644 PWs)   bands (ev):

   -45.3352 -45.3351 -19.8549 -19.8546 -19.7825 -19.7811 -19.7072 -19.7069
     2.4101   2.4316   3.5612   3.5615   3.5640   3.5658   3.5692   3.5719
     3.5782   3.5785   3.6168   3.6178   3.6191   3.6197   3.6255   3.6255
     3.8671   3.9030

          k = 0.0589 0.7071 0.0589 (  4644 PWs)   bands (ev):

   -45.3353 -45.3351 -19.8551 -19.8544 -19.7833 -19.7802 -19.7074 -19.7067
     2.3997   2.4485   3.5609   3.5617   3.5627   3.5658   3.5692   3.5740
     3.5782   3.5788   3.6151   3.6162   3.6195   3.6197   3.6264   3.6267
     3.8372   3.9150

          k = 0.0786 0.7071 0.0786 (  4634 PWs)   bands (ev):

   -45.3354 -45.3350 -19.8553 -19.8541 -19.7845 -19.7790 -19.7076 -19.7065
     2.3840   2.4721   3.5603   3.5617   3.5619   3.5658   3.5690   3.5762
     3.5783   3.5793   3.6133   3.6148   3.6196   3.6199   3.6270   3.6278
     3.8004   3.9317

          k = 0.0982 0.7071 0.0982 (  4630 PWs)   bands (ev):

   -45.3355 -45.3348 -19.8556 -19.8538 -19.7860 -19.7775 -19.7080 -19.7063
     2.3619   2.5023   3.5591   3.5608   3.5621   3.5658   3.5689   3.5784
     3.5785   3.5799   3.6115   3.6135   3.6195   3.6204   3.6268   3.6287
     3.7611   3.9529

          k = 0.1179 0.7071 0.1179 (  4646 PWs)   bands (ev):

   -45.3357 -45.3347 -19.8559 -19.8534 -19.7877 -19.7757 -19.7084 -19.7061
     2.3321   2.5390   3.5569   3.5601   3.5622   3.5659   3.5688   3.5786
     3.5806   3.5808   3.6100   3.6126   3.6193   3.6211   3.6252   3.6296
     3.7240   3.9785

          k = 0.1375 0.7071 0.1375 (  4630 PWs)   bands (ev):

   -45.3359 -45.3345 -19.8561 -19.8529 -19.7896 -19.7738 -19.7088 -19.7059
     2.2935   2.5818   3.5532   3.5596   3.5624   3.5660   3.5686   3.5790
     3.5815   3.5831   3.6086   3.6119   3.6192   3.6213   3.6219   3.6304
     3.6947   4.0082

          k = 0.1571 0.7071 0.1571 (  4634 PWs)   bands (ev):

   -45.3360 -45.3343 -19.8563 -19.8524 -19.7917 -19.7716 -19.7093 -19.7058
     2.2453   2.6307   3.5475   3.5593   3.5625   3.5661   3.5684   3.5795
     3.5824   3.5852   3.6077   3.6097   3.6161   3.6190   3.6227   3.6310
     3.6772   4.0421

          k = 0.1768 0.7071 0.1768 (  4622 PWs)   bands (ev):

   -45.3363 -45.3341 -19.8564 -19.8518 -19.7939 -19.7693 -19.7099 -19.7057
     2.1870   2.6854   3.5399   3.5592   3.5625   3.5662   3.5683   3.5802
     3.5834   3.5871   3.6027   3.6072   3.6155   3.6188   3.6237   3.6317
     3.6714   4.0796

          k = 0.5303 0.5303 0.0000 (  4622 PWs)   bands (ev):

   -45.3363 -45.3341 -19.8564 -19.8518 -19.7939 -19.7693 -19.7099 -19.7057
     2.1870   2.6854   3.5399   3.5592   3.5625   3.5662   3.5682   3.5802
     3.5834   3.5871   3.6027   3.6072   3.6155   3.6188   3.6237   3.6317
     3.6714   4.0796

          k = 0.5120 0.5120 0.0000 (  4620 PWs)   bands (ev):

   -45.3365 -45.3339 -19.8565 -19.8512 -19.7961 -19.7671 -19.7105 -19.7057
     2.1238   2.7413   3.5328   3.5593   3.5624   3.5661   3.5681   3.5811
     3.5844   3.5886   3.5967   3.6072   3.6167   3.6187   3.6247   3.6322
     3.6736   4.1178

          k = 0.4938 0.4938-0.0000 (  4632 PWs)   bands (ev):

   -45.3367 -45.3337 -19.8564 -19.8506 -19.7984 -19.7647 -19.7111 -19.7057
     2.0528   2.8017   3.5274   3.5595   3.5622   3.5659   3.5679   3.5821
     3.5855   3.5897   3.5927   3.6078   3.6183   3.6185   3.6257   3.6326
     3.6818   4.1588

          k = 0.4755 0.4755 0.0000 (  4624 PWs)   bands (ev):

   -45.3370 -45.3334 -19.8563 -19.8499 -19.8007 -19.7624 -19.7118 -19.7059
     1.9749   2.8664   3.5245   3.5600   3.5619   3.5655   3.5677   3.5832
     3.5867   3.5903   3.5905   3.6089   3.6183   3.6198   3.6267   3.6331
     3.6961   4.2023

          k = 0.4572 0.4572 0.0000 (  4620 PWs)   bands (ev):

   -45.3372 -45.3332 -19.8560 -19.8492 -19.8031 -19.7600 -19.7125 -19.7062
     1.8914   2.9349   3.5239   3.5607   3.5616   3.5650   3.5675   3.5845
     3.5879   3.5889   3.5910   3.6106   3.6182   3.6210   3.6278   3.6335
     3.7174   4.2480

          k = 0.4389 0.4389 0.0000 (  4624 PWs)   bands (ev):

   -45.3375 -45.3329 -19.8556 -19.8485 -19.8054 -19.7576 -19.7133 -19.7065
     1.8036   3.0069   3.5248   3.5613   3.5615   3.5644   3.5674   3.5858
     3.5881   3.5891   3.5913   3.6127   3.6182   3.6216   3.6289   3.6338
     3.7460   4.2954

          k = 0.4206 0.4206 0.0000 (  4616 PWs)   bands (ev):

   -45.3378 -45.3326 -19.8551 -19.8477 -19.8078 -19.7552 -19.7140 -19.7070
     1.7127   3.0820   3.5265   3.5609   3.5627   3.5637   3.5672   3.5871
     3.5877   3.5904   3.5915   3.6152   3.6182   3.6219   3.6300   3.6342
     3.7821   4.3442

          k = 0.4023 0.4023 0.0000 (  4620 PWs)   bands (ev):

   -45.3381 -45.3323 -19.8545 -19.8469 -19.8101 -19.7529 -19.7148 -19.7076
     1.6200   3.1596   3.5286   3.5605   3.5630   3.5641   3.5670   3.5875
     3.5884   3.5917   3.5918   3.6180   3.6184   3.6219   3.6311   3.6345
     3.8258   4.3938

          k = 0.3840 0.3840-0.0000 (  4636 PWs)   bands (ev):

   -45.3383 -45.3320 -19.8538 -19.8461 -19.8123 -19.7506 -19.7156 -19.7083
     1.5265   3.2390   3.5307   3.5602   3.5623   3.5659   3.5668   3.5874
     3.5896   3.5919   3.5932   3.6187   3.6214   3.6216   3.6322   3.6349
     3.8764   4.4437

          k = 0.3657 0.3657 0.0000 (  4638 PWs)   bands (ev):

   -45.3386 -45.3317 -19.8530 -19.8453 -19.8145 -19.7484 -19.7164 -19.7091
     1.4332   3.3192   3.5326   3.5598   3.5616   3.5666   3.5683   3.5875
     3.5906   3.5922   3.5946   3.6192   3.6212   3.6256   3.6332   3.6353
     3.9336   4.4932

          k = 0.3475 0.3475 0.0000 (  4644 PWs)   bands (ev):

   -45.3389 -45.3314 -19.8521 -19.8445 -19.8165 -19.7463 -19.7172 -19.7099
     1.3409   3.3982   3.5344   3.5595   3.5610   3.5664   3.5717   3.5876
     3.5914   3.5926   3.5961   3.6200   3.6206   3.6310   3.6342   3.6362
     3.9967   4.5421

          k = 0.3292 0.3292 0.0000 (  4642 PWs)   bands (ev):

   -45.3392 -45.3311 -19.8511 -19.8437 -19.8185 -19.7442 -19.7180 -19.7109
     1.2503   3.4713   3.5359   3.5593   3.5604   3.5662   3.5774   3.5876
     3.5919   3.5932   3.5976   3.6200   3.6209   3.6346   3.6351   3.6438
     4.0650   4.5439

          k = 0.3109 0.3109 0.0000 (  4646 PWs)   bands (ev):

   -45.3395 -45.3308 -19.8501 -19.8429 -19.8204 -19.7423 -19.7188 -19.7119
     1.1620   3.5259   3.5373   3.5591   3.5600   3.5660   3.5877   3.5882
     3.5922   3.5942   3.5991   3.6194   3.6221   3.6353   3.6360   3.6682
     4.1377   4.5248

          k = 0.2926 0.2926 0.0000 (  4662 PWs)   bands (ev):

   -45.3398 -45.3306 -19.8489 -19.8421 -19.8222 -19.7405 -19.7196 -19.7130
     1.0767   3.5385   3.5506   3.5589   3.5596   3.5657   3.5876   3.5921
     3.5945   3.6006   3.6029   3.6188   3.6234   3.6356   3.6367   3.7198
     4.2140   4.5094

          k = 0.2743 0.2743-0.0000 (  4669 PWs)   bands (ev):

   -45.3401 -45.3303 -19.8478 -19.8414 -19.8239 -19.7387 -19.7204 -19.7142
     0.9947   3.5395   3.5589   3.5593   3.5597   3.5655   3.5875   3.5918
     3.5958   3.6022   3.6120   3.6183   3.6248   3.6358   3.6374   3.7914
     4.2926   4.4975

          k = 0.2560 0.2560 0.0000 (  4651 PWs)   bands (ev):

   -45.3404 -45.3300 -19.8465 -19.8406 -19.8254 -19.7371 -19.7211 -19.7154
     0.9164   3.5404   3.5589   3.5592   3.5642   3.5654   3.5873   3.5912
     3.5972   3.6037   3.6175   3.6179   3.6264   3.6360   3.6380   3.8700
     4.3717   4.4891

          k = 0.2377 0.2377 0.0000 (  4631 PWs)   bands (ev):

   -45.3406 -45.3297 -19.8453 -19.8399 -19.8268 -19.7356 -19.7218 -19.7166
     0.8423   3.5412   3.5589   3.5592   3.5652   3.5671   3.5869   3.5904
     3.5988   3.6052   3.6175   3.6213   3.6279   3.6362   3.6385   3.9501
     4.4485   4.4842

          k = 0.2194 0.2194 0.0000 (  4641 PWs)   bands (ev):

   -45.3409 -45.3295 -19.8441 -19.8392 -19.8281 -19.7343 -19.7225 -19.7178
     0.7726   3.5420   3.5591   3.5592   3.5650   3.5693   3.5864   3.5895
     3.6006   3.6067   3.6173   3.6242   3.6295   3.6363   3.6389   4.0294
     4.4825   4.5182

          k = 0.2012 0.2012 0.0000 (  4643 PWs)   bands (ev):

   -45.3411 -45.3292 -19.8428 -19.8386 -19.8293 -19.7330 -19.7231 -19.7190
     0.7076   3.5426   3.5593   3.5594   3.5648   3.5710   3.5858   3.5884
     3.6025   3.6082   3.6171   3.6266   3.6309   3.6365   3.6392   4.1066
     4.4839   4.5737

          k = 0.1829 0.1829-0.0000 (  4641 PWs)   bands (ev):

   -45.3414 -45.3290 -19.8416 -19.8380 -19.8303 -19.7319 -19.7237 -19.7201
     0.6475   3.5431   3.5596   3.5596   3.5646   3.5724   3.5851   3.5873
     3.6046   3.6096   3.6171   3.6286   3.6323   3.6366   3.6394   4.1807
     4.4883   4.6093

          k = 0.1646 0.1646-0.0000 (  4641 PWs)   bands (ev):

   -45.3416 -45.3288 -19.8405 -19.8374 -19.8312 -19.7309 -19.7243 -19.7213
     0.5926   3.5436   3.5600   3.5600   3.5645   3.5736   3.5842   3.5861
     3.6068   3.6110   3.6171   3.6304   3.6335   3.6367   3.6395   4.2509
     4.4955   4.6265

          k = 0.1463 0.1463 0.0000 (  4651 PWs)   bands (ev):

   -45.3418 -45.3286 -19.8394 -19.8369 -19.8320 -19.7300 -19.7248 -19.7223
     0.5431   3.5441   3.5604   3.5604   3.5643   3.5746   3.5834   3.5848
     3.6089   3.6123   3.6172   3.6319   3.6346   3.6368   3.6395   4.3165
     4.5052   4.6317

          k = 0.1280 0.1280 0.0000 (  4647 PWs)   bands (ev):

   -45.3419 -45.3285 -19.8384 -19.8364 -19.8327 -19.7293 -19.7253 -19.7233
     0.4990   3.5444   3.5609   3.5609   3.5642   3.5754   3.5824   3.5835
     3.6109   3.6136   3.6174   3.6333   3.6356   3.6369   3.6395   4.3770
     4.5171   4.6307

          k = 0.1097 0.1097 0.0000 (  4639 PWs)   bands (ev):

   -45.3421 -45.3283 -19.8375 -19.8360 -19.8333 -19.7286 -19.7257 -19.7242
     0.4605   3.5448   3.5614   3.5614   3.5641   3.5761   3.5815   3.5823
     3.6128   3.6147   3.6176   3.6346   3.6364   3.6370   3.6394   4.4317
     4.5308   4.6267

          k = 0.0914 0.0914 0.0000 (  4641 PWs)   bands (ev):

   -45.3422 -45.3282 -19.8367 -19.8357 -19.8338 -19.7281 -19.7261 -19.7250
     0.4278   3.5450   3.5620   3.5620   3.5640   3.5766   3.5806   3.5811
     3.6144   3.6158   3.6178   3.6357   3.6371   3.6371   3.6393   4.4803
     4.5460   4.6217

          k = 0.0731 0.0731-0.0000 (  4635 PWs)   bands (ev):

   -45.3423 -45.3281 -19.8361 -19.8354 -19.8342 -19.7276 -19.7263 -19.7256
     0.4008   3.5453   3.5625   3.5625   3.5639   3.5771   3.5797   3.5801
     3.6158   3.6166   3.6180   3.6367   3.6372   3.6377   3.6391   4.5221
     4.5619   4.6167

          k = 0.0549 0.0549-0.0000 (  4635 PWs)   bands (ev):

   -45.3424 -45.3280 -19.8355 -19.8351 -19.8345 -19.7273 -19.7266 -19.7262
     0.3798   3.5454   3.5630   3.5630   3.5638   3.5774   3.5789   3.5792
     3.6169   3.6174   3.6181   3.6372   3.6376   3.6381   3.6389   4.5566
     4.5777   4.6124

          k = 0.0366 0.0366 0.0000 (  4641 PWs)   bands (ev):

   -45.3424 -45.3279 -19.8352 -19.8350 -19.8347 -19.7270 -19.7267 -19.7265
[...]
     0.3645   3.5455   3.5634   3.5634   3.5638   3.5776   3.5784   3.5784
     3.6179   3.6179   3.6182   3.6373   3.6384   3.6384   3.6386   4.5887
     4.5976   4.5976

          k = 0.0442 0.0442 0.0442 (  4633 PWs)   bands (ev):

   -45.3424 -45.3280 -19.8353 -19.8353 -19.8346 -19.7271 -19.7264 -19.7264
     0.3791   3.5454   3.5630   3.5630   3.5638   3.5773   3.5790   3.5791
     3.6172   3.6172   3.6180   3.6372   3.6380   3.6380   3.6386   4.5667
     4.5889   4.5889

          k = 0.0589 0.0589 0.0589 (  4636 PWs)   bands (ev):

   -45.3423 -45.3281 -19.8356 -19.8356 -19.8344 -19.7274 -19.7261 -19.7261
     0.3995   3.5453   3.5625   3.5625   3.5639   3.5770   3.5799   3.5799
     3.6164   3.6164   3.6177   3.6372   3.6376   3.6376   3.6386   4.5358
     4.5792   4.5792

          k = 0.0737 0.0737 0.0737 (  4633 PWs)   bands (ev):

   -45.3422 -45.3282 -19.8360 -19.8360 -19.8342 -19.7276 -19.7257 -19.7257
     0.4257   3.5450   3.5620   3.5620   3.5640   3.5765   3.5808   3.5809
     3.6153   3.6153   3.6173   3.6370   3.6370   3.6371   3.6385   4.4959
     4.5695   4.5695

          k = 0.0884 0.0884 0.0884 (  4648 PWs)   bands (ev):

   -45.3421 -45.3283 -19.8364 -19.8364 -19.8340 -19.7280 -19.7253 -19.7253
     0.4575   3.5448   3.5615   3.5615   3.5640   3.5759   3.5819   3.5819
     3.6140   3.6140   3.6168   3.6364   3.6364   3.6369   3.6385   4.4467
     4.5604   4.5604

          k = 0.1031 0.1031 0.1031 (  4651 PWs)   bands (ev):

   -45.3419 -45.3284 -19.8369 -19.8369 -19.8337 -19.7283 -19.7248 -19.7248
     0.4948   3.5444   3.5610   3.5610   3.5641   3.5752   3.5829   3.5829
     3.6126   3.6126   3.6162   3.6356   3.6357   3.6368   3.6384   4.3878
     4.5524   4.5524

          k = 0.1179 0.1179 0.1179 (  4663 PWs)   bands (ev):

   -45.3418 -45.3286 -19.8375 -19.8375 -19.8334 -19.7287 -19.7242 -19.7242
     0.5374   3.5440   3.5606   3.5606   3.5642   3.5744   3.5839   3.5839
     3.6111   3.6111   3.6155   3.6349   3.6349   3.6366   3.6383   4.3191
     4.5456   4.5456

          k = 0.1326 0.1326 0.1326 (  4663 PWs)   bands (ev):

   -45.3416 -45.3288 -19.8381 -19.8381 -19.8330 -19.7292 -19.7236 -19.7236
     0.5853   3.5435   3.5602   3.5602   3.5644   3.5735   3.5848   3.5848
     3.6095   3.6095   3.6146   3.6341   3.6341   3.6365   3.6382   4.2405
     4.5402   4.5402

          k = 0.1473 0.1473 0.1473 (  4669 PWs)   bands (ev):

   -45.3414 -45.3290 -19.8387 -19.8387 -19.8326 -19.7297 -19.7230 -19.7230
     0.6381   3.5428   3.5599   3.5599   3.5645   3.5725   3.5856   3.5856
     3.6079   3.6079   3.6136   3.6333   3.6333   3.6363   3.6381   4.1525
     4.5362   4.5362

          k = 0.1620 0.1620 0.1620 (  4645 PWs)   bands (ev):

   -45.3412 -45.3292 -19.8394 -19.8394 -19.8322 -19.7302 -19.7223 -19.7223
     0.6956   3.5419   3.5597   3.5597   3.5646   3.5713   3.5861   3.5861
     3.6066   3.6066   3.6124   3.6325   3.6325   3.6362   3.6381   4.0561
     4.5337   4.5337

          k = 0.1768 0.1768 0.1768 (  4654 PWs)   bands (ev):

   -45.3410 -45.3294 -19.8400 -19.8400 -19.8318 -19.7307 -19.7217 -19.7217
     0.7575   3.5407   3.5595   3.5595   3.5648   3.5699   3.5862   3.5862
     3.6054   3.6054   3.6108   3.6317   3.6317   3.6360   3.6380   3.9530
     4.5325   4.5325

          k = 0.1915 0.1915 0.1915 (  4636 PWs)   bands (ev):

   -45.3407 -45.3296 -19.8407 -19.8407 -19.8314 -19.7312 -19.7210 -19.7210
     0.8234   3.5385   3.5595   3.5595   3.5649   3.5683   3.5858   3.5858
     3.6047   3.6047   3.6086   3.6308   3.6308   3.6358   3.6379   3.8459
     4.5328   4.5328

          k = 0.2062 0.2062 0.2062 (  4642 PWs)   bands (ev):

   -45.3405 -45.3299 -19.8413 -19.8413 -19.8310 -19.7317 -19.7204 -19.7204
     0.8927   3.5336   3.5596   3.5596   3.5650   3.5661   3.5850   3.5850
     3.6044   3.6044   3.6047   3.6300   3.6300   3.6357   3.6378   3.7398
     4.5343   4.5343

          k = 0.2210 0.2210 0.2210 (  4633 PWs)   bands (ev):

   -45.3403 -45.3301 -19.8419 -19.8419 -19.8305 -19.7322 -19.7198 -19.7198
     0.9648   3.5167   3.5598   3.5598   3.5623   3.5652   3.5837   3.5837
     3.5933   3.6045   3.6045   3.6292   3.6292   3.6354   3.6377   3.6531
     4.5369   4.5369

          k = 0.2357 0.2357 0.2357 (  4627 PWs)   bands (ev):

   -45.3400 -45.3304 -19.8424 -19.8424 -19.8302 -19.7327 -19.7193 -19.7193
     1.0388   3.4537   3.5555   3.5602   3.5602   3.5653   3.5752   3.5821
     3.5821   3.6049   3.6049   3.6217   3.6284   3.6284   3.6357   3.6376
     4.5406   4.5406

          k = 0.2504 0.2504 0.2504 (  4639 PWs)   bands (ev):

   -45.3398 -45.3306 -19.8430 -19.8430 -19.8298 -19.7331 -19.7187 -19.7187
     1.1136   3.3545   3.5507   3.5606   3.5606   3.5654   3.5692   3.5803
     3.5803   3.6055   3.6055   3.6152   3.6275   3.6275   3.6355   3.6375
     4.5450   4.5450

          k = 0.2652 0.2652 0.2652 (  4645 PWs)   bands (ev):

   -45.3396 -45.3308 -19.8434 -19.8434 -19.8295 -19.7335 -19.7183 -19.7183
     1.1878   3.2500   3.5483   3.5612   3.5612   3.5655   3.5666   3.5784
     3.5784   3.6062   3.6062   3.6126   3.6268   3.6268   3.6354   3.6374
     4.5499   4.5499

          k = 0.2799 0.2799 0.2799 (  4636 PWs)   bands (ev):

   -45.3394 -45.3310 -19.8438 -19.8438 -19.8292 -19.7339 -19.7179 -19.7179
     1.2595   3.1498   3.5470   3.5620   3.5620   3.5650   3.5656   3.5765
     3.5765   3.6069   3.6069   3.6110   3.6261   3.6261   3.6353   3.6373
     4.5551   4.5551

          k = 0.2946 0.2946 0.2946 (  4639 PWs)   bands (ev):

   -45.3392 -45.3312 -19.8442 -19.8442 -19.8290 -19.7342 -19.7175 -19.7175
     1.3260   3.0586   3.5461   3.5629   3.5629   3.5638   3.5657   3.5746
     3.5746   3.6076   3.6076   3.6099   3.6254   3.6254   3.6352   3.6373
     4.5600   4.5600

          k = 0.3094 0.3094 0.3094 (  4615 PWs)   bands (ev):

   -45.3390 -45.3313 -19.8444 -19.8444 -19.8287 -19.7344 -19.7173 -19.7173
     1.3841   2.9807   3.5455   3.5629   3.5639   3.5639   3.5658   3.5727
     3.5727   3.6083   3.6083   3.6092   3.6249   3.6249   3.6352   3.6372
     4.5361   4.5645

          k = 0.3241 0.3241 0.3241 (  4630 PWs)   bands (ev):

   -45.3389 -45.3314 -19.8446 -19.8446 -19.8286 -19.7346 -19.7171 -19.7171
     1.4300   2.9203   3.5451   3.5622   3.5650   3.5650   3.5658   3.5710
     3.5710   3.6087   3.6087   3.6087   3.6244   3.6245   3.6351   3.6372
     4.5271   4.5680

          k = 0.3388 0.3388 0.3388 (  4614 PWs)   bands (ev):

   -45.3389 -45.3315 -19.8447 -19.8447 -19.8285 -19.7347 -19.7170 -19.7170
     1.4597   2.8818   3.5449   3.5618   3.5658   3.5663   3.5663   3.5693
     3.5693   3.6084   3.6090   3.6090   3.6242   3.6242   3.6351   3.6372
     4.5217   4.5703

          k = 0.3536 0.3536 0.3536 (  4626 PWs)   bands (ev):

   -45.3388 -45.3315 -19.8448 -19.8448 -19.8285 -19.7347 -19.7169 -19.7169
     1.4700   2.8685   3.5448   3.5617   3.5658   3.5677   3.5677   3.5678
     3.5678   3.6083   3.6091   3.6091   3.6241   3.6241   3.6351   3.6372
     4.5199   4.5711

          k = 0.3536 0.3722 0.3349 (  4618 PWs)   bands (ev):

   -45.3388 -45.3315 -19.8450 -19.8448 -19.8281 -19.7350 -19.7169 -19.7167
     1.4732   2.8692   3.5448   3.5615   3.5657   3.5674   3.5676   3.5681
     3.5683   3.6083   3.6090   3.6091   3.6239   3.6241   3.6351   3.6371
     4.5128   4.5661

          k = 0.3536 0.3908 0.3163 (  4620 PWs)   bands (ev):

   -45.3388 -45.3316 -19.8457 -19.8450 -19.8271 -19.7360 -19.7167 -19.7161
     1.4829   2.8711   3.5445   3.5611   3.5654   3.5672   3.5679   3.5686
     3.5691   3.6082   3.6085   3.6091   3.6234   3.6242   3.6351   3.6367
     4.4917   4.5513

          k = 0.3536 0.4094 0.2977 (  4610 PWs)   bands (ev):

   -45.3387 -45.3316 -19.8467 -19.8452 -19.8256 -19.7375 -19.7165 -19.7152
     1.4989   2.8742   3.5440   3.5605   3.5650   3.5671   3.5683   3.5692
     3.5702   3.6077   3.6081   3.6090   3.6225   3.6243   3.6350   3.6362
     4.4573   4.5274

          k = 0.3536 0.4280 0.2791 (  4616 PWs)   bands (ev):

   -45.3386 -45.3317 -19.8478 -19.8455 -19.8237 -19.7394 -19.7162 -19.7141
     1.5213   2.8783   3.5434   3.5598   3.5646   3.5670   3.5688   3.5698
     3.5715   3.6067   3.6078   3.6091   3.6213   3.6245   3.6348   3.6356
     4.4110   4.4953

          k = 0.3536 0.4466 0.2605 (  4618 PWs)   bands (ev):

   -45.3385 -45.3318 -19.8490 -19.8459 -19.8215 -19.7415 -19.7158 -19.7130
     1.5499   2.8830   3.5425   3.5592   3.5642   3.5670   3.5693   3.5705
     3.5730   3.6053   3.6074   3.6092   3.6198   3.6247   3.6343   3.6352
     4.3547   4.4561

          k = 0.3536 0.4652 0.2419 (  4616 PWs)   bands (ev):

   -45.3384 -45.3320 -19.8502 -19.8464 -19.8191 -19.7439 -19.7153 -19.7118
     1.5846   2.8880   3.5416   3.5586   3.5639   3.5670   3.5698   3.5713
     3.5746   3.6036   3.6069   3.6093   3.6181   3.6250   3.6335   3.6350
     4.2903   4.4110

          k = 0.3536 0.4838 0.2233 (  4622 PWs)   bands (ev):

   -45.3382 -45.3321 -19.8513 -19.8469 -19.8166 -19.7464 -19.7148 -19.7108
     1.6254   2.8927   3.5404   3.5581   3.5636   3.5671   3.5703   3.5721
     3.5763   3.6017   3.6063   3.6095   3.6162   3.6253   3.6325   3.6348
     4.2198   4.3611

          k = 0.3536 0.5024 0.2047 (  4624 PWs)   bands (ev):

   -45.3381 -45.3323 -19.8523 -19.8476 -19.8139 -19.7491 -19.7142 -19.7098
     1.6721   2.8961   3.5392   3.5577   3.5633   3.5671   3.5708   3.5730
     3.5781   3.5995   3.6056   3.6097   3.6142   3.6257   3.6315   3.6347
     4.1457   4.3076

          k = 0.3536 0.5210 0.1861 (  4624 PWs)   bands (ev):

   -45.3379 -45.3325 -19.8532 -19.8482 -19.8112 -19.7518 -19.7135 -19.7089
     1.7243   2.8972   3.5378   3.5574   3.5631   3.5672   3.5712   3.5739
     3.5800   3.5972   3.6047   3.6099   3.6122   3.6262   3.6305   3.6345
     4.0703   4.2515

          k = 0.3536 0.5396 0.1675 (  4624 PWs)   bands (ev):

   -45.3377 -45.3327 -19.8539 -19.8489 -19.8084 -19.7546 -19.7128 -19.7082
     1.7820   2.8945   3.5365   3.5572   3.5630   3.5672   3.5717   3.5748
     3.5821   3.5949   3.6038   3.6101   3.6101   3.6268   3.6294   3.6343
     3.9963   4.1939

          k = 0.3536 0.5582 0.1489 (  4620 PWs)   bands (ev):

   -45.3374 -45.3329 -19.8546 -19.8496 -19.8055 -19.7575 -19.7121 -19.7075
     1.8448   2.8861   3.5354   3.5572   3.5629   3.5671   3.5721   3.5756
     3.5842   3.5925   3.6028   3.6082   3.6104   3.6274   3.6284   3.6341
     3.9267   4.1356

          k = 0.3536 0.5769 0.1303 (  4620 PWs)   bands (ev):

   -45.3372 -45.3332 -19.8551 -19.8504 -19.8026 -19.7604 -19.7114 -19.7070
     1.9124   2.8699   3.5347   3.5572   3.5628   3.5670   3.5725   3.5765
     3.5864   3.5902   3.6017   3.6063   3.6106   3.6273   3.6281   3.6339
     3.8644   4.0776

          k = 0.3536 0.5955 0.1116 (  4622 PWs)   bands (ev):

   -45.3369 -45.3335 -19.8554 -19.8511 -19.7997 -19.7634 -19.7107 -19.7067
     1.9843   2.8439   3.5351   3.5574   3.5628   3.5668   3.5728   3.5773
     3.5880   3.5887   3.6006   3.6047   3.6108   3.6261   3.6288   3.6338
     3.8118   4.0205

          k = 0.3536 0.6141 0.0930 (  4624 PWs)   bands (ev):

   -45.3367 -45.3337 -19.8556 -19.8519 -19.7967 -19.7664 -19.7100 -19.7065
     2.0602   2.8065   3.5370   3.5577   3.5627   3.5664   3.5732   3.5781
     3.5861   3.5910   3.5995   3.6036   3.6111   3.6247   3.6296   3.6338
     3.7707   3.9653

          k = 0.3536 0.6327 0.0744 (  4626 PWs)   bands (ev):

   -45.3364 -45.3340 -19.8557 -19.8526 -19.7937 -19.7694 -19.7093 -19.7064
     2.1393   2.7573   3.5406   3.5581   3.5627   3.5658   3.5736   3.5787
     3.5846   3.5931   3.5987   3.6029   3.6113   3.6230   3.6304   3.6340
     3.7419   3.9128

          k = 0.3536 0.6513 0.0558 (  4632 PWs)   bands (ev):

   -45.3361 -45.3343 -19.8557 -19.8532 -19.7907 -19.7724 -19.7087 -19.7064
     2.2210   2.6972   3.5457   3.5586   3.5626   3.5651   3.5741   3.5788
     3.5844   3.5941   3.5989   3.6029   3.6114   3.6209   3.6312   3.6342
     3.7256   3.8638

          k = 0.3536 0.6699 0.0372 (  4630 PWs)   bands (ev):

   -45.3358 -45.3346 -19.8555 -19.8539 -19.7877 -19.7755 -19.7081 -19.7065
     2.3044   2.6280   3.5509   3.5591   3.5625   3.5643   3.5746   3.5780
     3.5856   3.5934   3.6006   3.6033   3.6117   3.6183   3.6321   3.6344
     3.7218   3.8196

          k = 0.3536 0.6885 0.0186 (  4630 PWs)   bands (ev):

   -45.3355 -45.3349 -19.8552 -19.8544 -19.7846 -19.7785 -19.7076 -19.7068
     2.3883   2.5519   3.5552   3.5590   3.5624   3.5635   3.5752   3.5770
     3.5877   3.5919   3.6026   3.6039   3.6122   3.6157   3.6329   3.6342
     3.7306   3.7814

          k = 0.3536 0.7071 0.0000 (  4648 PWs)   bands (ev):

   -45.3352 -45.3352 -19.8549 -19.8549 -19.7816 -19.7816 -19.7071 -19.7071
     2.4714   2.4714   3.5579   3.5579   3.5627   3.5627   3.5760   3.5760
     3.5899   3.5899   3.6038   3.6038   3.6134   3.6134   3.6337   3.6337
     3.7511   3.7511

          k = 0.3264 0.7071 0.0000 (  4628 PWs)   bands (ev):

   -45.3352 -45.3352 -19.8549 -19.8549 -19.7816 -19.7816 -19.7071 -19.7071
     2.4705   2.4705   3.5580   3.5580   3.5627   3.5627   3.5760   3.5760
     3.5896   3.5896   3.6039   3.6039   3.6137   3.6137   3.6336   3.6336
     3.7531   3.7531

          k = 0.2992 0.7071 0.0000 (  4636 PWs)   bands (ev):

   -45.3352 -45.3352 -19.8549 -19.8549 -19.7816 -19.7816 -19.7071 -19.7071
     2.4681   2.4681   3.5581   3.5581   3.5627   3.5627   3.5759   3.5759
     3.5886   3.5886   3.6043   3.6043   3.6145   3.6145   3.6334   3.6334
     3.7591   3.7591

          k = 0.2720 0.7071-0.0000 (  4628 PWs)   bands (ev):

   -45.3352 -45.3352 -19.8549 -19.8549 -19.7816 -19.7816 -19.7071 -19.7071
     2.4642   2.4642   3.5584   3.5584   3.5626   3.5626   3.5758   3.5758
     3.5873   3.5873   3.6050   3.6050   3.6154   3.6154   3.6330   3.6330
     3.7687   3.7687

          k = 0.2448 0.7071 0.0000 (  4632 PWs)   bands (ev):

   -45.3352 -45.3352 -19.8548 -19.8548 -19.7816 -19.7816 -19.7071 -19.7071
     2.4592   2.4592   3.5588   3.5588   3.5625   3.5625   3.5757   3.5757
     3.5856   3.5856   3.6060   3.6060   3.6164   3.6164   3.6325   3.6325
     3.7814   3.7814

          k = 0.2176 0.7071 0.0000 (  4622 PWs)   bands (ev):

   -45.3352 -45.3352 -19.8548 -19.8548 -19.7816 -19.7816 -19.7071 -19.7071
     2.4533   2.4533   3.5593   3.5593   3.5625   3.5625   3.5755   3.5755
     3.5839   3.5839   3.6074   3.6074   3.6172   3.6172   3.6319   3.6319
     3.7964   3.7964

          k = 0.1904 0.7071 0.0000 (  4624 PWs)   bands (ev):

   -45.3352 -45.3352 -19.8548 -19.8548 -19.7817 -19.7817 -19.7071 -19.7071
     2.4469   2.4469   3.5599   3.5599   3.5624   3.5624   3.5752   3.5752
     3.5823   3.5823   3.6089   3.6089   3.6179   3.6179   3.6311   3.6311
     3.8130   3.8130

          k = 0.1632 0.7071-0.0000 (  4628 PWs)   bands (ev):

   -45.3352 -45.3352 -19.8548 -19.8548 -19.7817 -19.7817 -19.7071 -19.7071
     2.4405   2.4405   3.5604   3.5604   3.5625   3.5625   3.5747   3.5747
     3.5809   3.5809   3.6106   3.6106   3.6184   3.6184   3.6302   3.6302
     3.8301   3.8301

          k = 0.1360 0.7071 0.0000 (  4624 PWs)   bands (ev):

   -45.3352 -45.3352 -19.8548 -19.8548 -19.7817 -19.7817 -19.7071 -19.7071
     2.4344   2.4344   3.5609   3.5609   3.5627   3.5627   3.5740   3.5740
     3.5798   3.5798   3.6123   3.6123   3.6188   3.6188   3.6291   3.6291
     3.8468   3.8468

          k = 0.1088 0.7071 0.0000 (  4638 PWs)   bands (ev):

   -45.3352 -45.3352 -19.8548 -19.8548 -19.7817 -19.7817 -19.7070 -19.7070
     2.4288   2.4288   3.5612   3.5612   3.5632   3.5632   3.5730   3.5730
     3.5790   3.5790   3.6141   3.6141   3.6190   3.6190   3.6280   3.6280
     3.8621   3.8621

          k = 0.0816 0.7071 0.0000 (  4642 PWs)   bands (ev):

   -45.3352 -45.3352 -19.8548 -19.8548 -19.7818 -19.7818 -19.7070 -19.7070
     2.4243   2.4243   3.5613   3.5613   3.5639   3.5639   3.5719   3.5719
     3.5786   3.5786   3.6158   3.6158   3.6192   3.6192   3.6268   3.6268
     3.8751   3.8751

          k = 0.0544 0.7071 0.0000 (  4646 PWs)   bands (ev):

   -45.3352 -45.3352 -19.8548 -19.8548 -19.7818 -19.7818 -19.7070 -19.7070
     2.4208   2.4208   3.5614   3.5614   3.5647   3.5647   3.5707   3.5707
     3.5783   3.5783   3.6173   3.6173   3.6193   3.6193   3.6255   3.6255
     3.8850   3.8850

          k = 0.0272 0.7071 0.0000 (  4634 PWs)   bands (ev):

   -45.3352 -45.3352 -19.8548 -19.8548 -19.7818 -19.7818 -19.7070 -19.7070
     2.4187   2.4187   3.5614   3.5614   3.5655   3.5655   3.5698   3.5698
     3.5782   3.5782   3.6185   3.6185   3.6196   3.6196   3.6245   3.6245
     3.8912   3.8912

          k = 0.0000 0.7071 0.0000 (  4656 PWs)   bands (ev):

   -45.3352 -45.3352 -19.8548 -19.8548 -19.7818 -19.7818 -19.7070 -19.7070
     2.4179   2.4179   3.5614   3.5614   3.5659   3.5659   3.5693   3.5693
     3.5782   3.5782   3.6189   3.6189   3.6198   3.6198   3.6239   3.6239
     3.8934   3.8934

     Writing all to output data dir ./out/aiida.save/

     init_run     :      1.05s CPU      1.12s WALL (       1 calls)
     electrons    :     88.78s CPU     90.17s WALL (       1 calls)

     Called by init_run:
     wfcinit      :      0.00s CPU      0.00s WALL (       1 calls)
     wfcinit:atom :      0.04s CPU      0.04s WALL (     124 calls)
     wfcinit:wfcr :      3.22s CPU      3.28s WALL (     124 calls)
     potinit      :      0.41s CPU      0.42s WALL (       1 calls)
     hinit0       :      0.42s CPU      0.42s WALL (       1 calls)

     Called by electrons:
     c_bands      :     88.78s CPU     90.17s WALL (       1 calls)
     v_of_rho     :      0.03s CPU      0.03s WALL (       1 calls)
     v_h          :      0.00s CPU      0.00s WALL (       1 calls)
     v_xc         :      0.02s CPU      0.02s WALL (       1 calls)
     newd         :      0.09s CPU      0.14s WALL (       1 calls)
     PAW_pot      :      0.21s CPU      0.22s WALL (       1 calls)

     Called by c_bands:
     init_us_2    :      0.03s CPU      0.04s WALL (     124 calls)
     init_us_2:cp :      0.03s CPU      0.04s WALL (     124 calls)
     cegterg      :     84.99s CPU     86.30s WALL (     563 calls)

     Called by sum_band:

     Called by *egterg:
     cdiaghg      :     14.82s CPU     15.03s WALL (   10456 calls)
     cegterg:over :      5.57s CPU      5.68s WALL (   10332 calls)
     cegterg:upda :      2.38s CPU      2.42s WALL (   10332 calls)
     cegterg:last :      4.89s CPU      4.94s WALL (    6563 calls)
     cdiaghg:chol :      0.96s CPU      0.98s WALL (   10456 calls)
     cdiaghg:inve :      0.28s CPU      0.28s WALL (   10456 calls)
     cdiaghg:para :      1.43s CPU      1.45s WALL (   20912 calls)
     h_psi        :     57.47s CPU     58.42s WALL (   11019 calls)
     s_psi        :      1.26s CPU      1.29s WALL (   11019 calls)
     g_psi        :      0.40s CPU      0.40s WALL (   10332 calls)

     Called by h_psi:
     h_psi:calbec :      2.88s CPU      2.93s WALL (   11019 calls)
     vloc_psi     :     52.78s CPU     53.65s WALL (   11019 calls)
     add_vuspsi   :      1.54s CPU      1.57s WALL (   11019 calls)

     General routines
     calbec       :      2.84s CPU      2.90s WALL (   11019 calls)
     fft          :      0.30s CPU      0.30s WALL (      13 calls)
     ffts         :      0.17s CPU      0.18s WALL (       1 calls)
     fftw         :     48.04s CPU     48.83s WALL (  314800 calls)
     interpolate  :      0.17s CPU      0.18s WALL (       1 calls)
     davcio       :      0.03s CPU      0.04s WALL (     248 calls)

     Parallel routines

     PAW routines
     PAW_pot      :      0.21s CPU      0.22s WALL (       1 calls)

     PWSCF        :   1m30.68s CPU   1m32.39s WALL


   This run was terminated on:  20:36:53   8Mar2023            

=------------------------------------------------------------------------------=
   JOB DONE.
=------------------------------------------------------------------------------=
