CRYSTAL
PRIMVEC
 -2.17850995502383 2.17850995502383 2.17850995502383
 2.17850995502383 -2.17850995502383 2.17850995502383
 2.17850995502383 2.17850995502383 -2.17850995502383
PRIMCOORD
 1 1
 89     0.00000000000000     0.00000000000000     0.00000000000000
