CRYSTAL
PRIMVEC
 -2.17850993822607 2.17850993822607 2.17850993822607
 2.17850993822607 -2.17850993822607 2.17850993822607
 2.17850993822607 2.17850993822607 -2.17850993822607
PRIMCOORD
 1 1
 89     0.00000000000000     0.00000000000000     0.00000000000000
