CRYSTAL
PRIMVEC
 0.00000000000000 2.73049025568153 2.73049025568153
 2.73049025568153 0.00000000000000 2.73049025568153
 2.73049025568153 2.73049025568153 0.00000000000000
PRIMCOORD
 1 1
 89     0.00000000000000     0.00000000000000     0.00000000000000
