CRYSTAL
PRIMVEC
 3.54161537582736 0.00000000000000 0.00000000000000
 0.00000000000000 3.54161537582736 0.00000000000000
 0.00000000000000 0.00000000000000 3.54161537582736
PRIMCOORD
 1 1
 89     0.00000000000000     0.00000000000000     0.00000000000000
