CRYSTAL
PRIMVEC
 3.54161474423301 0.00000000000000 0.00000000000000
 0.00000000000000 3.54161474423301 0.00000000000000
 0.00000000000000 0.00000000000000 3.54161474423301
PRIMCOORD
 1 1
 89     0.00000000000000     0.00000000000000     0.00000000000000
