CRYSTAL
PRIMVEC
 -1.59142263794345 1.59142263794345 1.59142263794345
 1.59142263794345 -1.59142263794345 1.59142263794345
 1.59142263794345 1.59142263794345 -1.59142263794345
PRIMCOORD
 1 1
 47     0.00000000000000     0.00000000000000     0.00000000000000
