CRYSTAL
PRIMVEC
 -1.59142253436820 1.59142253436820 1.59142253436820
 1.59142253436820 -1.59142253436820 1.59142253436820
 1.59142253436820 1.59142253436820 -1.59142253436820
PRIMCOORD
 1 1
 47     0.00000000000000     0.00000000000000     0.00000000000000
