CRYSTAL
PRIMVEC
 0.00000000000000 2.00072493183632 2.00072493183632
 2.00072493183632 0.00000000000000 2.00072493183632
 2.00072493183632 2.00072493183632 0.00000000000000
PRIMCOORD
 1 1
 47     0.00000000000000     0.00000000000000     0.00000000000000
