CRYSTAL
PRIMVEC
 2.64692901162237 0.00000000000000 0.00000000000000
 0.00000000000000 2.64692901162237 0.00000000000000
 0.00000000000000 0.00000000000000 2.64692901162237
PRIMCOORD
 1 1
 47     0.00000000000000     0.00000000000000     0.00000000000000
