CRYSTAL
PRIMVEC
 -1.59419538240943 1.59419538240943 1.59419538240943
 1.59419538240943 -1.59419538240943 1.59419538240943
 1.59419538240943 1.59419538240943 -1.59419538240943
PRIMCOORD
 1 1
 13     0.00000000000000     0.00000000000000     0.00000000000000
