CRYSTAL
PRIMVEC
 0.00000000000000 1.99186417995962 1.99186417995962
 1.99186417995962 0.00000000000000 1.99186417995962
 1.99186417995962 1.99186417995962 0.00000000000000
PRIMCOORD
 1 1
 13     0.00000000000000     0.00000000000000     0.00000000000000
