CRYSTAL
PRIMVEC
 2.68206379016463 0.00000000000000 0.00000000000000
 0.00000000000000 2.68206379016463 0.00000000000000
 0.00000000000000 0.00000000000000 2.68206379016463
PRIMCOORD
 1 1
 13     0.00000000000000     0.00000000000000     0.00000000000000
