CRYSTAL
PRIMVEC
 2.68206391891812 0.00000000000000 0.00000000000000
 0.00000000000000 2.68206391891812 0.00000000000000
 0.00000000000000 0.00000000000000 2.68206391891812
PRIMCOORD
 1 1
 13     0.00000000000000     0.00000000000000     0.00000000000000
