CRYSTAL
PRIMVEC
 -1.55430711785590 1.55430711785590 1.55430711785590
 1.55430711785590 -1.55430711785590 1.55430711785590
 1.55430711785590 1.55430711785590 -1.55430711785590
PRIMCOORD
 1 1
 95     0.00000000000000     0.00000000000000     0.00000000000000
