CRYSTAL
PRIMVEC
 -1.55430712001920 1.55430712001920 1.55430712001920
 1.55430712001920 -1.55430712001920 1.55430712001920
 1.55430712001920 1.55430712001920 -1.55430712001920
PRIMCOORD
 1 1
 95     0.00000000000000     0.00000000000000     0.00000000000000
