CRYSTAL
PRIMVEC
 0.00000000000000 1.99507448344934 1.99507448344934
 1.99507448344934 0.00000000000000 1.99507448344934
 1.99507448344934 1.99507448344934 0.00000000000000
PRIMCOORD
 1 1
 95     0.00000000000000     0.00000000000000     0.00000000000000
