CRYSTAL
PRIMVEC
 2.46672862852173 0.00000000000000 0.00000000000000
 0.00000000000000 2.46672862852173 0.00000000000000
 0.00000000000000 0.00000000000000 2.46672862852173
PRIMCOORD
 1 1
 95     0.00000000000000     0.00000000000000     0.00000000000000
