CRYSTAL
PRIMVEC
 2.46672860953313 0.00000000000000 0.00000000000000
 0.00000000000000 2.46672860953313 0.00000000000000
 0.00000000000000 0.00000000000000 2.46672860953313
PRIMCOORD
 1 1
 95     0.00000000000000     0.00000000000000     0.00000000000000
