CRYSTAL
PRIMVEC
 -1.97376798630384 1.97376798630384 1.97376798630384
 1.97376798630384 -1.97376798630384 1.97376798630384
 1.97376798630384 1.97376798630384 -1.97376798630384
PRIMCOORD
 1 1
 18     0.00000000000000     0.00000000000000     0.00000000000000
