CRYSTAL
PRIMVEC
 -1.97376798579178 1.97376798579178 1.97376798579178
 1.97376798579178 -1.97376798579178 1.97376798579178
 1.97376798579178 1.97376798579178 -1.97376798579178
PRIMCOORD
 1 1
 18     0.00000000000000     0.00000000000000     0.00000000000000
