CRYSTAL
PRIMVEC
 0.00000000000000 2.46924270263810 2.46924270263810
 2.46924270263810 0.00000000000000 2.46924270263810
 2.46924270263810 2.46924270263810 0.00000000000000
PRIMCOORD
 1 1
 18     0.00000000000000     0.00000000000000     0.00000000000000
