CRYSTAL
PRIMVEC
 3.39989653058240 0.00000000000000 0.00000000000000
 0.00000000000000 3.39989653058240 0.00000000000000
 0.00000000000000 0.00000000000000 3.39989653058240
PRIMCOORD
 1 1
 18     0.00000000000000     0.00000000000000     0.00000000000000
