CRYSTAL
PRIMVEC
 -1.64697128843239 1.64697128843239 1.64697128843239
 1.64697128843239 -1.64697128843239 1.64697128843239
 1.64697128843239 1.64697128843239 -1.64697128843239
PRIMCOORD
 1 1
 33     0.00000000000000     0.00000000000000     0.00000000000000
