CRYSTAL
PRIMVEC
 -1.64697129351760 1.64697129351760 1.64697129351760
 1.64697129351760 -1.64697129351760 1.64697129351760
 1.64697129351760 1.64697129351760 -1.64697129351760
PRIMCOORD
 1 1
 33     0.00000000000000     0.00000000000000     0.00000000000000
