CRYSTAL
PRIMVEC
 0.00000000000000 2.08495281456155 2.08495281456155
 2.08495281456155 0.00000000000000 2.08495281456155
 2.08495281456155 2.08495281456155 0.00000000000000
PRIMCOORD
 1 1
 33     0.00000000000000     0.00000000000000     0.00000000000000
