CRYSTAL
PRIMVEC
 0.00000000000000 2.08495284081976 2.08495284081976
 2.08495284081976 0.00000000000000 2.08495284081976
 2.08495284081976 2.08495284081976 0.00000000000000
PRIMCOORD
 1 1
 33     0.00000000000000     0.00000000000000     0.00000000000000
