CRYSTAL
PRIMVEC
 2.67485046799089 0.00000000000000 0.00000000000000
 0.00000000000000 2.67485046799089 0.00000000000000
 0.00000000000000 0.00000000000000 2.67485046799089
PRIMCOORD
 1 1
 33     0.00000000000000     0.00000000000000     0.00000000000000
