CRYSTAL
PRIMVEC
 -2.07527364306573 2.07527364306573 2.07527364306573
 2.07527364306573 -2.07527364306573 2.07527364306573
 2.07527364306573 2.07527364306573 -2.07527364306573
PRIMCOORD
 1 1
 85     0.00000000000000     0.00000000000000     0.00000000000000
