CRYSTAL
PRIMVEC
 -2.07527365791522 2.07527365791522 2.07527365791522
 2.07527365791522 -2.07527365791522 2.07527365791522
 2.07527365791522 2.07527365791522 -2.07527365791522
PRIMCOORD
 1 1
 85     0.00000000000000     0.00000000000000     0.00000000000000
