CRYSTAL
PRIMVEC
 0.00000000000000 2.59289183935979 2.59289183935979
 2.59289183935979 0.00000000000000 2.59289183935979
 2.59289183935979 2.59289183935979 0.00000000000000
PRIMCOORD
 1 1
 85     0.00000000000000     0.00000000000000     0.00000000000000
