CRYSTAL
PRIMVEC
 0.00000000000000 2.59289185925543 2.59289185925543
 2.59289185925543 0.00000000000000 2.59289185925543
 2.59289185925543 2.59289185925543 0.00000000000000
PRIMCOORD
 1 1
 85     0.00000000000000     0.00000000000000     0.00000000000000
