CRYSTAL
PRIMVEC
 3.47140927650568 0.00000000000000 0.00000000000000
 0.00000000000000 3.47140927650568 0.00000000000000
 0.00000000000000 0.00000000000000 3.47140927650568
PRIMCOORD
 1 1
 85     0.00000000000000     0.00000000000000     0.00000000000000
