CRYSTAL
PRIMVEC
 3.47140929318516 0.00000000000000 0.00000000000000
 0.00000000000000 3.47140929318516 0.00000000000000
 0.00000000000000 0.00000000000000 3.47140929318516
PRIMCOORD
 1 1
 85     0.00000000000000     0.00000000000000     0.00000000000000
