CRYSTAL
PRIMVEC
 -1.60780084415136 1.60780084415136 1.60780084415136
 1.60780084415136 -1.60780084415136 1.60780084415136
 1.60780084415136 1.60780084415136 -1.60780084415136
PRIMCOORD
 1 1
 79     0.00000000000000     0.00000000000000     0.00000000000000
