CRYSTAL
PRIMVEC
 -1.60780085243309 1.60780085243309 1.60780085243309
 1.60780085243309 -1.60780085243309 1.60780085243309
 1.60780085243309 1.60780085243309 -1.60780085243309
PRIMCOORD
 1 1
 79     0.00000000000000     0.00000000000000     0.00000000000000
