CRYSTAL
PRIMVEC
 0.00000000000000 2.02440953331647 2.02440953331647
 2.02440953331647 0.00000000000000 2.02440953331647
 2.02440953331647 2.02440953331647 0.00000000000000
PRIMCOORD
 1 1
 79     0.00000000000000     0.00000000000000     0.00000000000000
