CRYSTAL
PRIMVEC
 0.00000000000000 2.02440952186368 2.02440952186368
 2.02440952186368 0.00000000000000 2.02440952186368
 2.02440952186368 2.02440952186368 0.00000000000000
PRIMCOORD
 1 1
 79     0.00000000000000     0.00000000000000     0.00000000000000
