CRYSTAL
PRIMVEC
 2.66866080807961 0.00000000000000 0.00000000000000
 0.00000000000000 2.66866080807961 0.00000000000000
 0.00000000000000 0.00000000000000 2.66866080807961
PRIMCOORD
 1 1
 79     0.00000000000000     0.00000000000000     0.00000000000000
