CRYSTAL
PRIMVEC
 -1.14002675122065 1.14002675122065 1.14002675122065
 1.14002675122065 -1.14002675122065 1.14002675122065
 1.14002675122065 1.14002675122065 -1.14002675122065
PRIMCOORD
 1 1
  5     0.00000000000000     0.00000000000000     0.00000000000000
