CRYSTAL
PRIMVEC
 -1.14002673348353 1.14002673348353 1.14002673348353
 1.14002673348353 -1.14002673348353 1.14002673348353
 1.14002673348353 1.14002673348353 -1.14002673348353
PRIMCOORD
 1 1
  5     0.00000000000000     0.00000000000000     0.00000000000000
