CRYSTAL
PRIMVEC
 0.00000000000000 1.41764447014541 1.41764447014541
 1.41764447014541 0.00000000000000 1.41764447014541
 1.41764447014541 1.41764447014541 0.00000000000000
PRIMCOORD
 1 1
  5     0.00000000000000     0.00000000000000     0.00000000000000
