CRYSTAL
PRIMVEC
 1.86456876577598 0.00000000000000 0.00000000000000
 0.00000000000000 1.86456876577598 0.00000000000000
 0.00000000000000 0.00000000000000 1.86456876577598
PRIMCOORD
 1 1
  5     0.00000000000000     0.00000000000000     0.00000000000000
