CRYSTAL
PRIMVEC
 1.86456876211365 0.00000000000000 0.00000000000000
 0.00000000000000 1.86456876211365 0.00000000000000
 0.00000000000000 0.00000000000000 1.86456876211365
PRIMCOORD
 1 1
  5     0.00000000000000     0.00000000000000     0.00000000000000
