CRYSTAL
PRIMVEC
 -2.37850962383214 2.37850962383214 2.37850962383214
 2.37850962383214 -2.37850962383214 2.37850962383214
 2.37850962383214 2.37850962383214 -2.37850962383214
PRIMCOORD
 1 1
 56     0.00000000000000     0.00000000000000     0.00000000000000
