CRYSTAL
PRIMVEC
 -2.37850960982907 2.37850960982907 2.37850960982907
 2.37850960982907 -2.37850960982907 2.37850960982907
 2.37850960982907 2.37850960982907 -2.37850960982907
PRIMCOORD
 1 1
 56     0.00000000000000     0.00000000000000     0.00000000000000
