CRYSTAL
PRIMVEC
 0.00000000000000 2.99243887571503 2.99243887571503
 2.99243887571503 0.00000000000000 2.99243887571503
 2.99243887571503 2.99243887571503 0.00000000000000
PRIMCOORD
 1 1
 56     0.00000000000000     0.00000000000000     0.00000000000000
