CRYSTAL
PRIMVEC
 0.00000000000000 2.99243888993791 2.99243888993791
 2.99243888993791 0.00000000000000 2.99243888993791
 2.99243888993791 2.99243888993791 0.00000000000000
PRIMCOORD
 1 1
 56     0.00000000000000     0.00000000000000     0.00000000000000
