CRYSTAL
PRIMVEC
 3.70755709094231 0.00000000000000 0.00000000000000
 0.00000000000000 3.70755709094231 0.00000000000000
 0.00000000000000 0.00000000000000 3.70755709094231
PRIMCOORD
 1 1
 56     0.00000000000000     0.00000000000000     0.00000000000000
