CRYSTAL
PRIMVEC
 3.70755715032251 0.00000000000000 0.00000000000000
 0.00000000000000 3.70755715032251 0.00000000000000
 0.00000000000000 0.00000000000000 3.70755715032251
PRIMCOORD
 1 1
 56     0.00000000000000     0.00000000000000     0.00000000000000
