CRYSTAL
PRIMVEC
 -1.23047552307747 1.23047552307747 1.23047552307747
 1.23047552307747 -1.23047552307747 1.23047552307747
 1.23047552307747 1.23047552307747 -1.23047552307747
PRIMCOORD
 1 1
  4     0.00000000000000     0.00000000000000     0.00000000000000
