CRYSTAL
PRIMVEC
 0.00000000000000 1.55301692472062 1.55301692472062
 1.55301692472062 0.00000000000000 1.55301692472062
 1.55301692472062 1.55301692472062 0.00000000000000
PRIMCOORD
 1 1
  4     0.00000000000000     0.00000000000000     0.00000000000000
