CRYSTAL
PRIMVEC
 2.14079366736602 0.00000000000000 0.00000000000000
 0.00000000000000 2.14079366736602 0.00000000000000
 0.00000000000000 0.00000000000000 2.14079366736602
PRIMCOORD
 1 1
  4     0.00000000000000     0.00000000000000     0.00000000000000
