CRYSTAL
PRIMVEC
 2.14079372592115 0.00000000000000 0.00000000000000
 0.00000000000000 2.14079372592115 0.00000000000000
 0.00000000000000 0.00000000000000 2.14079372592115
PRIMCOORD
 1 1
  4     0.00000000000000     0.00000000000000     0.00000000000000
