CRYSTAL
PRIMVEC
 -1.94349473388571 1.94349473388571 1.94349473388571
 1.94349473388571 -1.94349473388571 1.94349473388571
 1.94349473388571 1.94349473388571 -1.94349473388571
PRIMCOORD
 1 1
 83     0.00000000000000     0.00000000000000     0.00000000000000
