CRYSTAL
PRIMVEC
 -1.94349468987646 1.94349468987646 1.94349468987646
 1.94349468987646 -1.94349468987646 1.94349468987646
 1.94349468987646 1.94349468987646 -1.94349468987646
PRIMCOORD
 1 1
 83     0.00000000000000     0.00000000000000     0.00000000000000
