CRYSTAL
PRIMVEC
 0.00000000000000 2.45289726028965 2.45289726028965
 2.45289726028965 0.00000000000000 2.45289726028965
 2.45289726028965 2.45289726028965 0.00000000000000
PRIMCOORD
 1 1
 83     0.00000000000000     0.00000000000000     0.00000000000000
