CRYSTAL
PRIMVEC
 3.19785384206718 0.00000000000000 0.00000000000000
 0.00000000000000 3.19785384206718 0.00000000000000
 0.00000000000000 0.00000000000000 3.19785384206718
PRIMCOORD
 1 1
 83     0.00000000000000     0.00000000000000     0.00000000000000
