CRYSTAL
PRIMVEC
 -1.56833428967712 1.56833428967712 1.56833428967712
 1.56833428967712 -1.56833428967712 1.56833428967712
 1.56833428967712 1.56833428967712 -1.56833428967712
PRIMCOORD
 1 1
 97     0.00000000000000     0.00000000000000     0.00000000000000
