CRYSTAL
PRIMVEC
 -1.56833429044226 1.56833429044226 1.56833429044226
 1.56833429044226 -1.56833429044226 1.56833429044226
 1.56833429044226 1.56833429044226 -1.56833429044226
PRIMCOORD
 1 1
 97     0.00000000000000     0.00000000000000     0.00000000000000
