CRYSTAL
PRIMVEC
 0.00000000000000 2.00467052518739 2.00467052518739
 2.00467052518739 0.00000000000000 2.00467052518739
 2.00467052518739 2.00467052518739 0.00000000000000
PRIMCOORD
 1 1
 97     0.00000000000000     0.00000000000000     0.00000000000000
