CRYSTAL
PRIMVEC
 2.49318318284153 0.00000000000000 0.00000000000000
 0.00000000000000 2.49318318284153 0.00000000000000
 0.00000000000000 0.00000000000000 2.49318318284153
PRIMCOORD
 1 1
 97     0.00000000000000     0.00000000000000     0.00000000000000
