CRYSTAL
PRIMVEC
 -1.79854603428437 1.79854603428437 1.79854603428437
 1.79854603428437 -1.79854603428437 1.79854603428437
 1.79854603428437 1.79854603428437 -1.79854603428437
PRIMCOORD
 1 1
 35     0.00000000000000     0.00000000000000     0.00000000000000
