CRYSTAL
PRIMVEC
 0.00000000000000 2.25279166783633 2.25279166783633
 2.25279166783633 0.00000000000000 2.25279166783633
 2.25279166783633 2.25279166783633 0.00000000000000
PRIMCOORD
 1 1
 35     0.00000000000000     0.00000000000000     0.00000000000000
