CRYSTAL
PRIMVEC
 2.98299074721631 0.00000000000000 0.00000000000000
 0.00000000000000 2.98299074721631 0.00000000000000
 0.00000000000000 0.00000000000000 2.98299074721631
PRIMCOORD
 1 1
 35     0.00000000000000     0.00000000000000     0.00000000000000
