CRYSTAL
PRIMVEC
 2.98299071596450 0.00000000000000 0.00000000000000
 0.00000000000000 2.98299071596450 0.00000000000000
 0.00000000000000 0.00000000000000 2.98299071596450
PRIMCOORD
 1 1
 35     0.00000000000000     0.00000000000000     0.00000000000000
