CRYSTAL
PRIMVEC
 -1.16379945321104 1.16379945321104 1.16379945321104
 1.16379945321104 -1.16379945321104 1.16379945321104
 1.16379945321104 1.16379945321104 -1.16379945321104
PRIMCOORD
 1 1
  6     0.00000000000000     0.00000000000000     0.00000000000000
