CRYSTAL
PRIMVEC
 0.00000000000000 1.50771133226907 1.50771133226907
 1.50771133226907 0.00000000000000 1.50771133226907
 1.50771133226907 1.50771133226907 0.00000000000000
PRIMCOORD
 1 1
  6     0.00000000000000     0.00000000000000     0.00000000000000
