CRYSTAL
PRIMVEC
 1.74925253701134 0.00000000000000 0.00000000000000
 0.00000000000000 1.74925253701134 0.00000000000000
 0.00000000000000 0.00000000000000 1.74925253701134
PRIMCOORD
 1 1
  6     0.00000000000000     0.00000000000000     0.00000000000000
