CRYSTAL
PRIMVEC
 1.74925256755784 0.00000000000000 0.00000000000000
 0.00000000000000 1.74925256755784 0.00000000000000
 0.00000000000000 0.00000000000000 1.74925256755784
PRIMCOORD
 1 1
  6     0.00000000000000     0.00000000000000     0.00000000000000
