CRYSTAL
PRIMVEC
 -2.10992940035341 2.10992940035341 2.10992940035341
 2.10992940035341 -2.10992940035341 2.10992940035341
 2.10992940035341 2.10992940035341 -2.10992940035341
PRIMCOORD
 1 1
 20     0.00000000000000     0.00000000000000     0.00000000000000
