CRYSTAL
PRIMVEC
 -2.10992939988987 2.10992939988987 2.10992939988987
 2.10992939988987 -2.10992939988987 2.10992939988987
 2.10992939988987 2.10992939988987 -2.10992939988987
PRIMCOORD
 1 1
 20     0.00000000000000     0.00000000000000     0.00000000000000
