CRYSTAL
PRIMVEC
 0.00000000000000 2.66906364934165 2.66906364934165
 2.66906364934165 0.00000000000000 2.66906364934165
 2.66906364934165 2.66906364934165 0.00000000000000
PRIMCOORD
 1 1
 20     0.00000000000000     0.00000000000000     0.00000000000000
