CRYSTAL
PRIMVEC
 3.36205294639923 0.00000000000000 0.00000000000000
 0.00000000000000 3.36205294639923 0.00000000000000
 0.00000000000000 0.00000000000000 3.36205294639923
PRIMCOORD
 1 1
 20     0.00000000000000     0.00000000000000     0.00000000000000
