CRYSTAL
PRIMVEC
 -1.71855092236842 1.71855092236842 1.71855092236842
 1.71855092236842 -1.71855092236842 1.71855092236842
 1.71855092236842 1.71855092236842 -1.71855092236842
PRIMCOORD
 1 1
 48     0.00000000000000     0.00000000000000     0.00000000000000
