CRYSTAL
PRIMVEC
 -1.71855094423976 1.71855094423976 1.71855094423976
 1.71855094423976 -1.71855094423976 1.71855094423976
 1.71855094423976 1.71855094423976 -1.71855094423976
PRIMCOORD
 1 1
 48     0.00000000000000     0.00000000000000     0.00000000000000
