CRYSTAL
PRIMVEC
 2.85519445345165 0.00000000000000 0.00000000000000
 0.00000000000000 2.85519445345165 0.00000000000000
 0.00000000000000 0.00000000000000 2.85519445345165
PRIMCOORD
 1 1
 48     0.00000000000000     0.00000000000000     0.00000000000000
