CRYSTAL
PRIMVEC
 -1.79818511561947 1.79818511561947 1.79818511561947
 1.79818511561947 -1.79818511561947 1.79818511561947
 1.79818511561947 1.79818511561947 -1.79818511561947
PRIMCOORD
 1 1
 58     0.00000000000000     0.00000000000000     0.00000000000000
