CRYSTAL
PRIMVEC
 0.00000000000000 2.26007772290522 2.26007772290522
 2.26007772290522 0.00000000000000 2.26007772290522
 2.26007772290522 2.26007772290522 0.00000000000000
PRIMCOORD
 1 1
 58     0.00000000000000     0.00000000000000     0.00000000000000
