CRYSTAL
PRIMVEC
 2.80906221363939 0.00000000000000 0.00000000000000
 0.00000000000000 2.80906221363939 0.00000000000000
 0.00000000000000 0.00000000000000 2.80906221363939
PRIMCOORD
 1 1
 58     0.00000000000000     0.00000000000000     0.00000000000000
