CRYSTAL
PRIMVEC
 2.80906180366327 0.00000000000000 0.00000000000000
 0.00000000000000 2.80906180366327 0.00000000000000
 0.00000000000000 0.00000000000000 2.80906180366327
PRIMCOORD
 1 1
 58     0.00000000000000     0.00000000000000     0.00000000000000
