CRYSTAL
PRIMVEC
 -1.59645597571061 1.59645597571061 1.59645597571061
 1.59645597571061 -1.59645597571061 1.59645597571061
 1.59645597571061 1.59645597571061 -1.59645597571061
PRIMCOORD
 1 1
 98     0.00000000000000     0.00000000000000     0.00000000000000
