CRYSTAL
PRIMVEC
 -1.59645598228115 1.59645598228115 1.59645598228115
 1.59645598228115 -1.59645598228115 1.59645598228115
 1.59645598228115 1.59645598228115 -1.59645598228115
PRIMCOORD
 1 1
 98     0.00000000000000     0.00000000000000     0.00000000000000
