CRYSTAL
PRIMVEC
 0.00000000000000 2.03551115984144 2.03551115984144
 2.03551115984144 0.00000000000000 2.03551115984144
 2.03551115984144 2.03551115984144 0.00000000000000
PRIMCOORD
 1 1
 98     0.00000000000000     0.00000000000000     0.00000000000000
