CRYSTAL
PRIMVEC
 2.54101453901326 0.00000000000000 0.00000000000000
 0.00000000000000 2.54101453901326 0.00000000000000
 0.00000000000000 0.00000000000000 2.54101453901326
PRIMCOORD
 1 1
 98     0.00000000000000     0.00000000000000     0.00000000000000
