CRYSTAL
PRIMVEC
 2.54101452879887 0.00000000000000 0.00000000000000
 0.00000000000000 2.54101452879887 0.00000000000000
 0.00000000000000 0.00000000000000 2.54101452879887
PRIMCOORD
 1 1
 98     0.00000000000000     0.00000000000000     0.00000000000000
