CRYSTAL
PRIMVEC
 -1.66197031031529 1.66197031031529 1.66197031031529
 1.66197031031529 -1.66197031031529 1.66197031031529
 1.66197031031529 1.66197031031529 -1.66197031031529
PRIMCOORD
 1 1
 17     0.00000000000000     0.00000000000000     0.00000000000000
