CRYSTAL
PRIMVEC
 -1.66197031036453 1.66197031036453 1.66197031036453
 1.66197031036453 -1.66197031036453 1.66197031036453
 1.66197031036453 1.66197031036453 -1.66197031036453
PRIMCOORD
 1 1
 17     0.00000000000000     0.00000000000000     0.00000000000000
