CRYSTAL
PRIMVEC
 0.00000000000000 2.08439150382705 2.08439150382705
 2.08439150382705 0.00000000000000 2.08439150382705
 2.08439150382705 2.08439150382705 0.00000000000000
PRIMCOORD
 1 1
 17     0.00000000000000     0.00000000000000     0.00000000000000
