CRYSTAL
PRIMVEC
 2.74547087161746 0.00000000000000 0.00000000000000
 0.00000000000000 2.74547087161746 0.00000000000000
 0.00000000000000 0.00000000000000 2.74547087161746
PRIMCOORD
 1 1
 17     0.00000000000000     0.00000000000000     0.00000000000000
