CRYSTAL
PRIMVEC
 2.74547087372755 0.00000000000000 0.00000000000000
 0.00000000000000 2.74547087372755 0.00000000000000
 0.00000000000000 0.00000000000000 2.74547087372755
PRIMCOORD
 1 1
 17     0.00000000000000     0.00000000000000     0.00000000000000
