CRYSTAL
PRIMVEC
 -1.55540213653155 1.55540213653155 1.55540213653155
 1.55540213653155 -1.55540213653155 1.55540213653155
 1.55540213653155 1.55540213653155 -1.55540213653155
PRIMCOORD
 1 1
 96     0.00000000000000     0.00000000000000     0.00000000000000
