CRYSTAL
PRIMVEC
 -1.55540214052578 1.55540214052578 1.55540214052578
 1.55540214052578 -1.55540214052578 1.55540214052578
 1.55540214052578 1.55540214052578 -1.55540214052578
PRIMCOORD
 1 1
 96     0.00000000000000     0.00000000000000     0.00000000000000
