CRYSTAL
PRIMVEC
 0.00000000000000 1.99255077741698 1.99255077741698
 1.99255077741698 0.00000000000000 1.99255077741698
 1.99255077741698 1.99255077741698 0.00000000000000
PRIMCOORD
 1 1
 96     0.00000000000000     0.00000000000000     0.00000000000000
