CRYSTAL
PRIMVEC
 0.00000000000000 1.99255078618821 1.99255078618821
 1.99255078618821 0.00000000000000 1.99255078618821
 1.99255078618821 1.99255078618821 0.00000000000000
PRIMCOORD
 1 1
 96     0.00000000000000     0.00000000000000     0.00000000000000
