CRYSTAL
PRIMVEC
 2.46940565717090 0.00000000000000 0.00000000000000
 0.00000000000000 2.46940565717090 0.00000000000000
 0.00000000000000 0.00000000000000 2.46940565717090
PRIMCOORD
 1 1
 96     0.00000000000000     0.00000000000000     0.00000000000000
