CRYSTAL
PRIMVEC
 -1.34795318736801 1.34795318736801 1.34795318736801
 1.34795318736801 -1.34795318736801 1.34795318736801
 1.34795318736801 1.34795318736801 -1.34795318736801
PRIMCOORD
 1 1
 27     0.00000000000000     0.00000000000000     0.00000000000000
