CRYSTAL
PRIMVEC
 -1.34795318483850 1.34795318483850 1.34795318483850
 1.34795318483850 -1.34795318483850 1.34795318483850
 1.34795318483850 1.34795318483850 -1.34795318483850
PRIMCOORD
 1 1
 27     0.00000000000000     0.00000000000000     0.00000000000000
