CRYSTAL
PRIMVEC
 2.22275571312762 0.00000000000000 0.00000000000000
 0.00000000000000 2.22275571312762 0.00000000000000
 0.00000000000000 0.00000000000000 2.22275571312762
PRIMCOORD
 1 1
 27     0.00000000000000     0.00000000000000     0.00000000000000
