CRYSTAL
PRIMVEC
 2.22275570378765 0.00000000000000 0.00000000000000
 0.00000000000000 2.22275570378765 0.00000000000000
 0.00000000000000 0.00000000000000 2.22275570378765
PRIMCOORD
 1 1
 27     0.00000000000000     0.00000000000000     0.00000000000000
