CRYSTAL
PRIMVEC
 -1.39440194191292 1.39440194191292 1.39440194191292
 1.39440194191292 -1.39440194191292 1.39440194191292
 1.39440194191292 1.39440194191292 -1.39440194191292
PRIMCOORD
 1 1
 24     0.00000000000000     0.00000000000000     0.00000000000000
