CRYSTAL
PRIMVEC
 0.00000000000000 1.77236690559728 1.77236690559728
 1.77236690559728 0.00000000000000 1.77236690559728
 1.77236690559728 1.77236690559728 0.00000000000000
PRIMCOORD
 1 1
 24     0.00000000000000     0.00000000000000     0.00000000000000
