CRYSTAL
PRIMVEC
 0.00000000000000 1.77236690835396 1.77236690835396
 1.77236690835396 0.00000000000000 1.77236690835396
 1.77236690835396 1.77236690835396 0.00000000000000
PRIMCOORD
 1 1
 24     0.00000000000000     0.00000000000000     0.00000000000000
