CRYSTAL
PRIMVEC
 2.28294550877504 0.00000000000000 0.00000000000000
 0.00000000000000 2.28294550877504 0.00000000000000
 0.00000000000000 0.00000000000000 2.28294550877504
PRIMCOORD
 1 1
 24     0.00000000000000     0.00000000000000     0.00000000000000
