CRYSTAL
PRIMVEC
 -2.88282054996392 2.88282054996392 2.88282054996392
 2.88282054996392 -2.88282054996392 2.88282054996392
 2.88282054996392 2.88282054996392 -2.88282054996392
PRIMCOORD
 1 1
 55     0.00000000000000     0.00000000000000     0.00000000000000
