CRYSTAL
PRIMVEC
 -2.88282105490722 2.88282105490722 2.88282105490722
 2.88282105490722 -2.88282105490722 2.88282105490722
 2.88282105490722 2.88282105490722 -2.88282105490722
PRIMCOORD
 1 1
 55     0.00000000000000     0.00000000000000     0.00000000000000
