CRYSTAL
PRIMVEC
 0.00000000000000 3.64098667784785 3.64098667784785
 3.64098667784785 0.00000000000000 3.64098667784785
 3.64098667784785 3.64098667784785 0.00000000000000
PRIMCOORD
 1 1
 55     0.00000000000000     0.00000000000000     0.00000000000000
