CRYSTAL
PRIMVEC
 4.74644867944864 0.00000000000000 0.00000000000000
 0.00000000000000 4.74644867944864 0.00000000000000
 0.00000000000000 0.00000000000000 4.74644867944864
PRIMCOORD
 1 1
 55     0.00000000000000     0.00000000000000     0.00000000000000
