CRYSTAL
PRIMVEC
 -1.39802953319933 1.39802953319933 1.39802953319933
 1.39802953319933 -1.39802953319933 1.39802953319933
 1.39802953319933 1.39802953319933 -1.39802953319933
PRIMCOORD
 1 1
 29     0.00000000000000     0.00000000000000     0.00000000000000
