CRYSTAL
PRIMVEC
 -1.39802953064011 1.39802953064011 1.39802953064011
 1.39802953064011 -1.39802953064011 1.39802953064011
 1.39802953064011 1.39802953064011 -1.39802953064011
PRIMCOORD
 1 1
 29     0.00000000000000     0.00000000000000     0.00000000000000
