CRYSTAL
PRIMVEC
 0.00000000000000 1.75899512754905 1.75899512754905
 1.75899512754905 0.00000000000000 1.75899512754905
 1.75899512754905 1.75899512754905 0.00000000000000
PRIMCOORD
 1 1
 29     0.00000000000000     0.00000000000000     0.00000000000000
