CRYSTAL
PRIMVEC
 2.32703648425302 0.00000000000000 0.00000000000000
 0.00000000000000 2.32703648425302 0.00000000000000
 0.00000000000000 0.00000000000000 2.32703648425302
PRIMCOORD
 1 1
 29     0.00000000000000     0.00000000000000     0.00000000000000
