CRYSTAL
PRIMVEC
 -1.84653849114029 1.84653849114029 1.84653849114029
 1.84653849114029 -1.84653849114029 1.84653849114029
 1.84653849114029 1.84653849114029 -1.84653849114029
PRIMCOORD
 1 1
 66     0.00000000000000     0.00000000000000     0.00000000000000
