CRYSTAL
PRIMVEC
 -1.84653848696478 1.84653848696478 1.84653848696478
 1.84653848696478 -1.84653848696478 1.84653848696478
 1.84653848696478 1.84653848696478 -1.84653848696478
PRIMCOORD
 1 1
 66     0.00000000000000     0.00000000000000     0.00000000000000
