CRYSTAL
PRIMVEC
 0.00000000000000 2.30716911088348 2.30716911088348
 2.30716911088348 0.00000000000000 2.30716911088348
 2.30716911088348 2.30716911088348 0.00000000000000
PRIMCOORD
 1 1
 66     0.00000000000000     0.00000000000000     0.00000000000000
