CRYSTAL
PRIMVEC
 2.72902207742294 0.00000000000000 0.00000000000000
 0.00000000000000 2.72902207742294 0.00000000000000
 0.00000000000000 0.00000000000000 2.72902207742294
PRIMCOORD
 1 1
 66     0.00000000000000     0.00000000000000     0.00000000000000
