CRYSTAL
PRIMVEC
 -1.90624495653283 1.90624495653283 1.90624495653283
 1.90624495653283 -1.90624495653283 1.90624495653283
 1.90624495653283 1.90624495653283 -1.90624495653283
PRIMCOORD
 1 1
 68     0.00000000000000     0.00000000000000     0.00000000000000
