CRYSTAL
PRIMVEC
 -1.90624495501037 1.90624495501037 1.90624495501037
 1.90624495501037 -1.90624495501037 1.90624495501037
 1.90624495501037 1.90624495501037 -1.90624495501037
PRIMCOORD
 1 1
 68     0.00000000000000     0.00000000000000     0.00000000000000
