CRYSTAL
PRIMVEC
 0.00000000000000 2.39978484464958 2.39978484464958
 2.39978484464958 0.00000000000000 2.39978484464958
 2.39978484464958 2.39978484464958 0.00000000000000
PRIMCOORD
 1 1
 68     0.00000000000000     0.00000000000000     0.00000000000000
