CRYSTAL
PRIMVEC
 3.00892005014149 0.00000000000000 0.00000000000000
 0.00000000000000 3.00892005014149 0.00000000000000
 0.00000000000000 0.00000000000000 3.00892005014149
PRIMCOORD
 1 1
 68     0.00000000000000     0.00000000000000     0.00000000000000
