CRYSTAL
PRIMVEC
 3.00892006385519 0.00000000000000 0.00000000000000
 0.00000000000000 3.00892006385519 0.00000000000000
 0.00000000000000 0.00000000000000 3.00892006385519
PRIMCOORD
 1 1
 68     0.00000000000000     0.00000000000000     0.00000000000000
