CRYSTAL
PRIMVEC
 -1.64524397640781 1.64524397640781 1.64524397640781
 1.64524397640781 -1.64524397640781 1.64524397640781
 1.64524397640781 1.64524397640781 -1.64524397640781
PRIMCOORD
 1 1
 99     0.00000000000000     0.00000000000000     0.00000000000000
