CRYSTAL
PRIMVEC
 -1.64524389471726 1.64524389471726 1.64524389471726
 1.64524389471726 -1.64524389471726 1.64524389471726
 1.64524389471726 1.64524389471726 -1.64524389471726
PRIMCOORD
 1 1
 99     0.00000000000000     0.00000000000000     0.00000000000000
