CRYSTAL
PRIMVEC
 0.00000000000000 2.08992708584077 2.08992708584077
 2.08992708584077 0.00000000000000 2.08992708584077
 2.08992708584077 2.08992708584077 0.00000000000000
PRIMCOORD
 1 1
 99     0.00000000000000     0.00000000000000     0.00000000000000
