CRYSTAL
PRIMVEC
 0.00000000000000 2.08992698818097 2.08992698818097
 2.08992698818097 0.00000000000000 2.08992698818097
 2.08992698818097 2.08992698818097 0.00000000000000
PRIMCOORD
 1 1
 99     0.00000000000000     0.00000000000000     0.00000000000000
