CRYSTAL
PRIMVEC
 2.61261916582944 0.00000000000000 0.00000000000000
 0.00000000000000 2.61261916582944 0.00000000000000
 0.00000000000000 0.00000000000000 2.61261916582944
PRIMCOORD
 1 1
 99     0.00000000000000     0.00000000000000     0.00000000000000
