CRYSTAL
PRIMVEC
 2.61261916539735 0.00000000000000 0.00000000000000
 0.00000000000000 2.61261916539735 0.00000000000000
 0.00000000000000 0.00000000000000 2.61261916539735
PRIMCOORD
 1 1
 99     0.00000000000000     0.00000000000000     0.00000000000000
