CRYSTAL
PRIMVEC
 -1.61124130388351 1.61124130388351 1.61124130388351
 1.61124130388351 -1.61124130388351 1.61124130388351
 1.61124130388351 1.61124130388351 -1.61124130388351
PRIMCOORD
 1 1
 63     0.00000000000000     0.00000000000000     0.00000000000000
