CRYSTAL
PRIMVEC
 -1.61124133656256 1.61124133656256 1.61124133656256
 1.61124133656256 -1.61124133656256 1.61124133656256
 1.61124133656256 1.61124133656256 -1.61124133656256
PRIMCOORD
 1 1
 63     0.00000000000000     0.00000000000000     0.00000000000000
