CRYSTAL
PRIMVEC
 2.49055979515408 0.00000000000000 0.00000000000000
 0.00000000000000 2.49055979515408 0.00000000000000
 0.00000000000000 0.00000000000000 2.49055979515408
PRIMCOORD
 1 1
 63     0.00000000000000     0.00000000000000     0.00000000000000
