CRYSTAL
PRIMVEC
 2.49055978507833 0.00000000000000 0.00000000000000
 0.00000000000000 2.49055978507833 0.00000000000000
 0.00000000000000 0.00000000000000 2.49055978507833
PRIMCOORD
 1 1
 63     0.00000000000000     0.00000000000000     0.00000000000000
