CRYSTAL
PRIMVEC
 -1.28090262414991 1.28090262414991 1.28090262414991
 1.28090262414991 -1.28090262414991 1.28090262414991
 1.28090262414991 1.28090262414991 -1.28090262414991
PRIMCOORD
 1 1
  9     0.00000000000000     0.00000000000000     0.00000000000000
