CRYSTAL
PRIMVEC
 -1.28090262443385 1.28090262443385 1.28090262443385
 1.28090262443385 -1.28090262443385 1.28090262443385
 1.28090262443385 1.28090262443385 -1.28090262443385
PRIMCOORD
 1 1
  9     0.00000000000000     0.00000000000000     0.00000000000000
