CRYSTAL
PRIMVEC
 0.00000000000000 1.61367681834993 1.61367681834993
 1.61367681834993 0.00000000000000 1.61367681834993
 1.61367681834993 1.61367681834993 0.00000000000000
PRIMCOORD
 1 1
  9     0.00000000000000     0.00000000000000     0.00000000000000
