CRYSTAL
PRIMVEC
 0.00000000000000 1.61367681911115 1.61367681911115
 1.61367681911115 0.00000000000000 1.61367681911115
 1.61367681911115 1.61367681911115 0.00000000000000
PRIMCOORD
 1 1
  9     0.00000000000000     0.00000000000000     0.00000000000000
