CRYSTAL
PRIMVEC
 2.08304420100777 0.00000000000000 0.00000000000000
 0.00000000000000 2.08304420100777 0.00000000000000
 0.00000000000000 0.00000000000000 2.08304420100777
PRIMCOORD
 1 1
  9     0.00000000000000     0.00000000000000     0.00000000000000
