CRYSTAL
PRIMVEC
 2.08304420108434 0.00000000000000 0.00000000000000
 0.00000000000000 2.08304420108434 0.00000000000000
 0.00000000000000 0.00000000000000 2.08304420108434
PRIMCOORD
 1 1
  9     0.00000000000000     0.00000000000000     0.00000000000000
