CRYSTAL
PRIMVEC
 -1.34871073771071 1.34871073771071 1.34871073771071
 1.34871073771071 -1.34871073771071 1.34871073771071
 1.34871073771071 1.34871073771071 -1.34871073771071
PRIMCOORD
 1 1
 26     0.00000000000000     0.00000000000000     0.00000000000000
