CRYSTAL
PRIMVEC
 -1.34871073230578 1.34871073230578 1.34871073230578
 1.34871073230578 -1.34871073230578 1.34871073230578
 1.34871073230578 1.34871073230578 -1.34871073230578
PRIMCOORD
 1 1
 26     0.00000000000000     0.00000000000000     0.00000000000000
