CRYSTAL
PRIMVEC
 0.00000000000000 1.68689394590282 1.68689394590282
 1.68689394590282 0.00000000000000 1.68689394590282
 1.68689394590282 1.68689394590282 0.00000000000000
PRIMCOORD
 1 1
 26     0.00000000000000     0.00000000000000     0.00000000000000
