CRYSTAL
PRIMVEC
 0.00000000000000 1.68689394988701 1.68689394988701
 1.68689394988701 0.00000000000000 1.68689394988701
 1.68689394988701 1.68689394988701 0.00000000000000
PRIMCOORD
 1 1
 26     0.00000000000000     0.00000000000000     0.00000000000000
