CRYSTAL
PRIMVEC
 2.21144191758030 0.00000000000000 0.00000000000000
 0.00000000000000 2.21144191758030 0.00000000000000
 0.00000000000000 0.00000000000000 2.21144191758030
PRIMCOORD
 1 1
 26     0.00000000000000     0.00000000000000     0.00000000000000
