CRYSTAL
PRIMVEC
 2.21144189904528 0.00000000000000 0.00000000000000
 0.00000000000000 2.21144189904528 0.00000000000000
 0.00000000000000 0.00000000000000 2.21144189904528
PRIMCOORD
 1 1
 26     0.00000000000000     0.00000000000000     0.00000000000000
