CRYSTAL
PRIMVEC
 -1.72352735570079 1.72352735570079 1.72352735570079
 1.72352735570079 -1.72352735570079 1.72352735570079
 1.72352735570079 1.72352735570079 -1.72352735570079
PRIMCOORD
 1 1
 100     0.00000000000000     0.00000000000000     0.00000000000000
