CRYSTAL
PRIMVEC
 -1.72352703690300 1.72352703690300 1.72352703690300
 1.72352703690300 -1.72352703690300 1.72352703690300
 1.72352703690300 1.72352703690300 -1.72352703690300
PRIMCOORD
 1 1
 100     0.00000000000000     0.00000000000000     0.00000000000000
