CRYSTAL
PRIMVEC
 2.73708573858876 0.00000000000000 0.00000000000000
 0.00000000000000 2.73708573858876 0.00000000000000
 0.00000000000000 0.00000000000000 2.73708573858876
PRIMCOORD
 1 1
 100     0.00000000000000     0.00000000000000     0.00000000000000
