CRYSTAL
PRIMVEC
 -2.85554712819606 2.85554712819606 2.85554712819606
 2.85554712819606 -2.85554712819606 2.85554712819606
 2.85554712819606 2.85554712819606 -2.85554712819606
PRIMCOORD
 1 1
 87     0.00000000000000     0.00000000000000     0.00000000000000
