CRYSTAL
PRIMVEC
 -2.85554712386472 2.85554712386472 2.85554712386472
 2.85554712386472 -2.85554712386472 2.85554712386472
 2.85554712386472 2.85554712386472 -2.85554712386472
PRIMCOORD
 1 1
 87     0.00000000000000     0.00000000000000     0.00000000000000
