CRYSTAL
PRIMVEC
 0.00000000000000 3.61428218505365 3.61428218505365
 3.61428218505365 0.00000000000000 3.61428218505365
 3.61428218505365 3.61428218505365 0.00000000000000
PRIMCOORD
 1 1
 87     0.00000000000000     0.00000000000000     0.00000000000000
