CRYSTAL
PRIMVEC
 4.78207759538012 0.00000000000000 0.00000000000000
 0.00000000000000 4.78207759538012 0.00000000000000
 0.00000000000000 0.00000000000000 4.78207759538012
PRIMCOORD
 1 1
 87     0.00000000000000     0.00000000000000     0.00000000000000
