CRYSTAL
PRIMVEC
 4.78207760737922 0.00000000000000 0.00000000000000
 0.00000000000000 4.78207760737922 0.00000000000000
 0.00000000000000 0.00000000000000 4.78207760737922
PRIMCOORD
 1 1
 87     0.00000000000000     0.00000000000000     0.00000000000000
