CRYSTAL
PRIMVEC
 -1.63171274522264 1.63171274522264 1.63171274522264
 1.63171274522264 -1.63171274522264 1.63171274522264
 1.63171274522264 1.63171274522264 -1.63171274522264
PRIMCOORD
 1 1
 31     0.00000000000000     0.00000000000000     0.00000000000000
