CRYSTAL
PRIMVEC
 -1.63171275965915 1.63171275965915 1.63171275965915
 1.63171275965915 -1.63171275965915 1.63171275965915
 1.63171275965915 1.63171275965915 -1.63171275965915
PRIMCOORD
 1 1
 31     0.00000000000000     0.00000000000000     0.00000000000000
