CRYSTAL
PRIMVEC
 0.00000000000000 2.04619540423991 2.04619540423991
 2.04619540423991 0.00000000000000 2.04619540423991
 2.04619540423991 2.04619540423991 0.00000000000000
PRIMCOORD
 1 1
 31     0.00000000000000     0.00000000000000     0.00000000000000
