CRYSTAL
PRIMVEC
 2.62667682199867 0.00000000000000 0.00000000000000
 0.00000000000000 2.62667682199867 0.00000000000000
 0.00000000000000 0.00000000000000 2.62667682199867
PRIMCOORD
 1 1
 31     0.00000000000000     0.00000000000000     0.00000000000000
