CRYSTAL
PRIMVEC
 2.62667681159803 0.00000000000000 0.00000000000000
 0.00000000000000 2.62667681159803 0.00000000000000
 0.00000000000000 0.00000000000000 2.62667681159803
PRIMCOORD
 1 1
 31     0.00000000000000     0.00000000000000     0.00000000000000
