CRYSTAL
PRIMVEC
 -1.67911162533326 1.67911162533326 1.67911162533326
 1.67911162533326 -1.67911162533326 1.67911162533326
 1.67911162533326 1.67911162533326 -1.67911162533326
PRIMCOORD
 1 1
 64     0.00000000000000     0.00000000000000     0.00000000000000
