CRYSTAL
PRIMVEC
 -1.67911125471687 1.67911125471687 1.67911125471687
 1.67911125471687 -1.67911125471687 1.67911125471687
 1.67911125471687 1.67911125471687 -1.67911125471687
PRIMCOORD
 1 1
 64     0.00000000000000     0.00000000000000     0.00000000000000
