CRYSTAL
PRIMVEC
 0.00000000000000 2.16742905656187 2.16742905656187
 2.16742905656187 0.00000000000000 2.16742905656187
 2.16742905656187 2.16742905656187 0.00000000000000
PRIMCOORD
 1 1
 64     0.00000000000000     0.00000000000000     0.00000000000000
