CRYSTAL
PRIMVEC
 2.51335781547169 0.00000000000000 0.00000000000000
 0.00000000000000 2.51335781547169 0.00000000000000
 0.00000000000000 0.00000000000000 2.51335781547169
PRIMCOORD
 1 1
 64     0.00000000000000     0.00000000000000     0.00000000000000
