CRYSTAL
PRIMVEC
 2.51335779235145 0.00000000000000 0.00000000000000
 0.00000000000000 2.51335779235145 0.00000000000000
 0.00000000000000 0.00000000000000 2.51335779235145
PRIMCOORD
 1 1
 64     0.00000000000000     0.00000000000000     0.00000000000000
