CRYSTAL
PRIMVEC
 -1.64677402857037 1.64677402857037 1.64677402857037
 1.64677402857037 -1.64677402857037 1.64677402857037
 1.64677402857037 1.64677402857037 -1.64677402857037
PRIMCOORD
 1 1
 32     0.00000000000000     0.00000000000000     0.00000000000000
