CRYSTAL
PRIMVEC
 -1.64677409860652 1.64677409860652 1.64677409860652
 1.64677409860652 -1.64677409860652 1.64677409860652
 1.64677409860652 1.64677409860652 -1.64677409860652
PRIMCOORD
 1 1
 32     0.00000000000000     0.00000000000000     0.00000000000000
