CRYSTAL
PRIMVEC
 0.00000000000000 2.08628229467628 2.08628229467628
 2.08628229467628 0.00000000000000 2.08628229467628
 2.08628229467628 2.08628229467628 0.00000000000000
PRIMCOORD
 1 1
 32     0.00000000000000     0.00000000000000     0.00000000000000
