CRYSTAL
PRIMVEC
 2.64552371076483 0.00000000000000 0.00000000000000
 0.00000000000000 2.64552371076483 0.00000000000000
 0.00000000000000 0.00000000000000 2.64552371076483
PRIMCOORD
 1 1
 32     0.00000000000000     0.00000000000000     0.00000000000000
