CRYSTAL
PRIMVEC
 2.64552390520776 0.00000000000000 0.00000000000000
 0.00000000000000 2.64552390520776 0.00000000000000
 0.00000000000000 0.00000000000000 2.64552390520776
PRIMCOORD
 1 1
 32     0.00000000000000     0.00000000000000     0.00000000000000
