CRYSTAL
PRIMVEC
 -0.89935814467153 0.89935814467153 0.89935814467153
 0.89935814467153 -0.89935814467153 0.89935814467153
 0.89935814467153 0.89935814467153 -0.89935814467153
PRIMCOORD
 1 1
  1     0.00000000000000     0.00000000000000     0.00000000000000
