CRYSTAL
PRIMVEC
 -0.89935815060170 0.89935815060170 0.89935815060170
 0.89935815060170 -0.89935815060170 0.89935815060170
 0.89935815060170 0.89935815060170 -0.89935815060170
PRIMCOORD
 1 1
  1     0.00000000000000     0.00000000000000     0.00000000000000
