CRYSTAL
PRIMVEC
 0.00000000000000 1.13279424285054 1.13279424285054
 1.13279424285054 0.00000000000000 1.13279424285054
 1.13279424285054 1.13279424285054 0.00000000000000
PRIMCOORD
 1 1
  1     0.00000000000000     0.00000000000000     0.00000000000000
