CRYSTAL
PRIMVEC
 0.00000000000000 1.13279424316758 1.13279424316758
 1.13279424316758 0.00000000000000 1.13279424316758
 1.13279424316758 1.13279424316758 0.00000000000000
PRIMCOORD
 1 1
  1     0.00000000000000     0.00000000000000     0.00000000000000
