CRYSTAL
PRIMVEC
 1.44581577997341 0.00000000000000 0.00000000000000
 0.00000000000000 1.44581577997341 0.00000000000000
 0.00000000000000 0.00000000000000 1.44581577997341
PRIMCOORD
 1 1
  1     0.00000000000000     0.00000000000000     0.00000000000000
