CRYSTAL
PRIMVEC
 1.44581579200373 0.00000000000000 0.00000000000000
 0.00000000000000 1.44581579200373 0.00000000000000
 0.00000000000000 0.00000000000000 1.44581579200373
PRIMCOORD
 1 1
  1     0.00000000000000     0.00000000000000     0.00000000000000
