CRYSTAL
PRIMVEC
 -1.37478594795012 1.37478594795012 1.37478594795012
 1.37478594795012 -1.37478594795012 1.37478594795012
 1.37478594795012 1.37478594795012 -1.37478594795012
PRIMCOORD
 1 1
  2     0.00000000000000     0.00000000000000     0.00000000000000
