CRYSTAL
PRIMVEC
 -1.37478593348859 1.37478593348859 1.37478593348859
 1.37478593348859 -1.37478593348859 1.37478593348859
 1.37478593348859 1.37478593348859 -1.37478593348859
PRIMCOORD
 1 1
  2     0.00000000000000     0.00000000000000     0.00000000000000
