CRYSTAL
PRIMVEC
 0.00000000000000 1.72139466846885 1.72139466846885
 1.72139466846885 0.00000000000000 1.72139466846885
 1.72139466846885 1.72139466846885 0.00000000000000
PRIMCOORD
 1 1
  2     0.00000000000000     0.00000000000000     0.00000000000000
