CRYSTAL
PRIMVEC
 0.00000000000000 1.72139464340242 1.72139464340242
 1.72139464340242 0.00000000000000 1.72139464340242
 1.72139464340242 1.72139464340242 0.00000000000000
PRIMCOORD
 1 1
  2     0.00000000000000     0.00000000000000     0.00000000000000
