CRYSTAL
PRIMVEC
 2.37418396785330 0.00000000000000 0.00000000000000
 0.00000000000000 2.37418396785330 0.00000000000000
 0.00000000000000 0.00000000000000 2.37418396785330
PRIMCOORD
 1 1
  2     0.00000000000000     0.00000000000000     0.00000000000000
