CRYSTAL
PRIMVEC
 2.37418394987585 0.00000000000000 0.00000000000000
 0.00000000000000 2.37418394987585 0.00000000000000
 0.00000000000000 0.00000000000000 2.37418394987585
PRIMCOORD
 1 1
  2     0.00000000000000     0.00000000000000     0.00000000000000
