CRYSTAL
PRIMVEC
 -1.72176691971991 1.72176691971991 1.72176691971991
 1.72176691971991 -1.72176691971991 1.72176691971991
 1.72176691971991 1.72176691971991 -1.72176691971991
PRIMCOORD
 1 1
 72     0.00000000000000     0.00000000000000     0.00000000000000
