CRYSTAL
PRIMVEC
 -1.72176691989724 1.72176691989724 1.72176691989724
 1.72176691989724 -1.72176691989724 1.72176691989724
 1.72176691989724 1.72176691989724 -1.72176691989724
PRIMCOORD
 1 1
 72     0.00000000000000     0.00000000000000     0.00000000000000
