CRYSTAL
PRIMVEC
 0.00000000000000 2.18103485084855 2.18103485084855
 2.18103485084855 0.00000000000000 2.18103485084855
 2.18103485084855 2.18103485084855 0.00000000000000
PRIMCOORD
 1 1
 72     0.00000000000000     0.00000000000000     0.00000000000000
