CRYSTAL
PRIMVEC
 2.82315665832409 0.00000000000000 0.00000000000000
 0.00000000000000 2.82315665832409 0.00000000000000
 0.00000000000000 0.00000000000000 2.82315665832409
PRIMCOORD
 1 1
 72     0.00000000000000     0.00000000000000     0.00000000000000
