CRYSTAL
PRIMVEC
 2.82315667860990 0.00000000000000 0.00000000000000
 0.00000000000000 2.82315667860990 0.00000000000000
 0.00000000000000 0.00000000000000 2.82315667860990
PRIMCOORD
 1 1
 72     0.00000000000000     0.00000000000000     0.00000000000000
