CRYSTAL
PRIMVEC
 -1.78004104329908 1.78004104329908 1.78004104329908
 1.78004104329908 -1.78004104329908 1.78004104329908
 1.78004104329908 1.78004104329908 -1.78004104329908
PRIMCOORD
 1 1
 80     0.00000000000000     0.00000000000000     0.00000000000000
