CRYSTAL
PRIMVEC
 -1.78004106950822 1.78004106950822 1.78004106950822
 1.78004106950822 -1.78004106950822 1.78004106950822
 1.78004106950822 1.78004106950822 -1.78004106950822
PRIMCOORD
 1 1
 80     0.00000000000000     0.00000000000000     0.00000000000000
