CRYSTAL
PRIMVEC
 0.00000000000000 2.22349286422053 2.22349286422053
 2.22349286422053 0.00000000000000 2.22349286422053
 2.22349286422053 2.22349286422053 0.00000000000000
PRIMCOORD
 1 1
 80     0.00000000000000     0.00000000000000     0.00000000000000
