CRYSTAL
PRIMVEC
 2.89463091901296 0.00000000000000 0.00000000000000
 0.00000000000000 2.89463091901296 0.00000000000000
 0.00000000000000 0.00000000000000 2.89463091901296
PRIMCOORD
 1 1
 80     0.00000000000000     0.00000000000000     0.00000000000000
