CRYSTAL
PRIMVEC
 -1.88178020141653 1.88178020141653 1.88178020141653
 1.88178020141653 -1.88178020141653 1.88178020141653
 1.88178020141653 1.88178020141653 -1.88178020141653
PRIMCOORD
 1 1
 67     0.00000000000000     0.00000000000000     0.00000000000000
