CRYSTAL
PRIMVEC
 -1.88178019915827 1.88178019915827 1.88178019915827
 1.88178019915827 -1.88178019915827 1.88178019915827
 1.88178019915827 1.88178019915827 -1.88178019915827
PRIMCOORD
 1 1
 67     0.00000000000000     0.00000000000000     0.00000000000000
