CRYSTAL
PRIMVEC
 0.00000000000000 2.35914962474838 2.35914962474838
 2.35914962474838 0.00000000000000 2.35914962474838
 2.35914962474838 2.35914962474838 0.00000000000000
PRIMCOORD
 1 1
 67     0.00000000000000     0.00000000000000     0.00000000000000
