CRYSTAL
PRIMVEC
 2.90050125259965 0.00000000000000 0.00000000000000
 0.00000000000000 2.90050125259965 0.00000000000000
 0.00000000000000 0.00000000000000 2.90050125259965
PRIMCOORD
 1 1
 67     0.00000000000000     0.00000000000000     0.00000000000000
