CRYSTAL
PRIMVEC
 2.90050126119441 0.00000000000000 0.00000000000000
 0.00000000000000 2.90050126119441 0.00000000000000
 0.00000000000000 0.00000000000000 2.90050126119441
PRIMCOORD
 1 1
 67     0.00000000000000     0.00000000000000     0.00000000000000
