CRYSTAL
PRIMVEC
 -1.99530228964131 1.99530228964131 1.99530228964131
 1.99530228964131 -1.99530228964131 1.99530228964131
 1.99530228964131 1.99530228964131 -1.99530228964131
PRIMCOORD
 1 1
 53     0.00000000000000     0.00000000000000     0.00000000000000
