CRYSTAL
PRIMVEC
 -1.99530228580915 1.99530228580915 1.99530228580915
 1.99530228580915 -1.99530228580915 1.99530228580915
 1.99530228580915 1.99530228580915 -1.99530228580915
PRIMCOORD
 1 1
 53     0.00000000000000     0.00000000000000     0.00000000000000
