CRYSTAL
PRIMVEC
 0.00000000000000 2.49200094062723 2.49200094062723
 2.49200094062723 0.00000000000000 2.49200094062723
 2.49200094062723 2.49200094062723 0.00000000000000
PRIMCOORD
 1 1
 53     0.00000000000000     0.00000000000000     0.00000000000000
