CRYSTAL
PRIMVEC
 3.34388270434411 0.00000000000000 0.00000000000000
 0.00000000000000 3.34388270434411 0.00000000000000
 0.00000000000000 0.00000000000000 3.34388270434411
PRIMCOORD
 1 1
 53     0.00000000000000     0.00000000000000     0.00000000000000
