CRYSTAL
PRIMVEC
 3.34388278393351 0.00000000000000 0.00000000000000
 0.00000000000000 3.34388278393351 0.00000000000000
 0.00000000000000 0.00000000000000 3.34388278393351
PRIMCOORD
 1 1
 53     0.00000000000000     0.00000000000000     0.00000000000000
