CRYSTAL
PRIMVEC
 -1.83841920501806 1.83841920501806 1.83841920501806
 1.83841920501806 -1.83841920501806 1.83841920501806
 1.83841920501806 1.83841920501806 -1.83841920501806
PRIMCOORD
 1 1
 49     0.00000000000000     0.00000000000000     0.00000000000000
