CRYSTAL
PRIMVEC
 -1.83841923821378 1.83841923821378 1.83841923821378
 1.83841923821378 -1.83841923821378 1.83841923821378
 1.83841923821378 1.83841923821378 -1.83841923821378
PRIMCOORD
 1 1
 49     0.00000000000000     0.00000000000000     0.00000000000000
