CRYSTAL
PRIMVEC
 0.00000000000000 2.30987352972617 2.30987352972617
 2.30987352972617 0.00000000000000 2.30987352972617
 2.30987352972617 2.30987352972617 0.00000000000000
PRIMCOORD
 1 1
 49     0.00000000000000     0.00000000000000     0.00000000000000
