CRYSTAL
PRIMVEC
 2.97110849270055 0.00000000000000 0.00000000000000
 0.00000000000000 2.97110849270055 0.00000000000000
 0.00000000000000 0.00000000000000 2.97110849270055
PRIMCOORD
 1 1
 49     0.00000000000000     0.00000000000000     0.00000000000000
