CRYSTAL
PRIMVEC
 -1.53031621502317 1.53031621502317 1.53031621502317
 1.53031621502317 -1.53031621502317 1.53031621502317
 1.53031621502317 1.53031621502317 -1.53031621502317
PRIMCOORD
 1 1
 77     0.00000000000000     0.00000000000000     0.00000000000000
