CRYSTAL
PRIMVEC
 -1.53031621395412 1.53031621395412 1.53031621395412
 1.53031621395412 -1.53031621395412 1.53031621395412
 1.53031621395412 1.53031621395412 -1.53031621395412
PRIMCOORD
 1 1
 77     0.00000000000000     0.00000000000000     0.00000000000000
