CRYSTAL
PRIMVEC
 2.52685604097362 0.00000000000000 0.00000000000000
 0.00000000000000 2.52685604097362 0.00000000000000
 0.00000000000000 0.00000000000000 2.52685604097362
PRIMCOORD
 1 1
 77     0.00000000000000     0.00000000000000     0.00000000000000
