CRYSTAL
PRIMVEC
 2.52685602610470 0.00000000000000 0.00000000000000
 0.00000000000000 2.52685602610470 0.00000000000000
 0.00000000000000 0.00000000000000 2.52685602610470
PRIMCOORD
 1 1
 77     0.00000000000000     0.00000000000000     0.00000000000000
