CRYSTAL
PRIMVEC
 -2.52191074392288 2.52191074392288 2.52191074392288
 2.52191074392288 -2.52191074392288 2.52191074392288
 2.52191074392288 2.52191074392288 -2.52191074392288
PRIMCOORD
 1 1
 19     0.00000000000000     0.00000000000000     0.00000000000000
