CRYSTAL
PRIMVEC
 -2.52191074415003 2.52191074415003 2.52191074415003
 2.52191074415003 -2.52191074415003 2.52191074415003
 2.52191074415003 2.52191074415003 -2.52191074415003
PRIMCOORD
 1 1
 19     0.00000000000000     0.00000000000000     0.00000000000000
