CRYSTAL
PRIMVEC
 0.00000000000000 3.18048404194959 3.18048404194959
 3.18048404194959 0.00000000000000 3.18048404194959
 3.18048404194959 3.18048404194959 0.00000000000000
PRIMCOORD
 1 1
 19     0.00000000000000     0.00000000000000     0.00000000000000
