CRYSTAL
PRIMVEC
 4.09888604125158 0.00000000000000 0.00000000000000
 0.00000000000000 4.09888604125158 0.00000000000000
 0.00000000000000 0.00000000000000 4.09888604125158
PRIMCOORD
 1 1
 19     0.00000000000000     0.00000000000000     0.00000000000000
