CRYSTAL
PRIMVEC
 -2.13057335091367 2.13057335091367 2.13057335091367
 2.13057335091367 -2.13057335091367 2.13057335091367
 2.13057335091367 2.13057335091367 -2.13057335091367
PRIMCOORD
 1 1
 36     0.00000000000000     0.00000000000000     0.00000000000000
