CRYSTAL
PRIMVEC
 -2.13057335124186 2.13057335124186 2.13057335124186
 2.13057335124186 -2.13057335124186 2.13057335124186
 2.13057335124186 2.13057335124186 -2.13057335124186
PRIMCOORD
 1 1
 36     0.00000000000000     0.00000000000000     0.00000000000000
