CRYSTAL
PRIMVEC
 0.00000000000000 2.66501030701954 2.66501030701954
 2.66501030701954 0.00000000000000 2.66501030701954
 2.66501030701954 2.66501030701954 0.00000000000000
PRIMCOORD
 1 1
 36     0.00000000000000     0.00000000000000     0.00000000000000
