CRYSTAL
PRIMVEC
 3.67543859690184 0.00000000000000 0.00000000000000
 0.00000000000000 3.67543859690184 0.00000000000000
 0.00000000000000 0.00000000000000 3.67543859690184
PRIMCOORD
 1 1
 36     0.00000000000000     0.00000000000000     0.00000000000000
