CRYSTAL
PRIMVEC
 3.67543859637079 0.00000000000000 0.00000000000000
 0.00000000000000 3.67543859637079 0.00000000000000
 0.00000000000000 0.00000000000000 3.67543859637079
PRIMCOORD
 1 1
 36     0.00000000000000     0.00000000000000     0.00000000000000
