CRYSTAL
PRIMVEC
 -2.02402313724428 2.02402313724428 2.02402313724428
 2.02402313724428 -2.02402313724428 2.02402313724428
 2.02402313724428 2.02402313724428 -2.02402313724428
PRIMCOORD
 1 1
 57     0.00000000000000     0.00000000000000     0.00000000000000
