CRYSTAL
PRIMVEC
 -2.02402315039356 2.02402315039356 2.02402315039356
 2.02402315039356 -2.02402315039356 2.02402315039356
 2.02402315039356 2.02402315039356 -2.02402315039356
PRIMCOORD
 1 1
 57     0.00000000000000     0.00000000000000     0.00000000000000
