CRYSTAL
PRIMVEC
 0.00000000000000 2.51965038322487 2.51965038322487
 2.51965038322487 0.00000000000000 2.51965038322487
 2.51965038322487 2.51965038322487 0.00000000000000
PRIMCOORD
 1 1
 57     0.00000000000000     0.00000000000000     0.00000000000000
