CRYSTAL
PRIMVEC
 0.00000000000000 2.51965034216770 2.51965034216770
 2.51965034216770 0.00000000000000 2.51965034216770
 2.51965034216770 2.51965034216770 0.00000000000000
PRIMCOORD
 1 1
 57     0.00000000000000     0.00000000000000     0.00000000000000
