CRYSTAL
PRIMVEC
 3.16913616031497 0.00000000000000 0.00000000000000
 0.00000000000000 3.16913616031497 0.00000000000000
 0.00000000000000 0.00000000000000 3.16913616031497
PRIMCOORD
 1 1
 57     0.00000000000000     0.00000000000000     0.00000000000000
