CRYSTAL
PRIMVEC
 -1.68166423092207 1.68166423092207 1.68166423092207
 1.68166423092207 -1.68166423092207 1.68166423092207
 1.68166423092207 1.68166423092207 -1.68166423092207
PRIMCOORD
 1 1
  3     0.00000000000000     0.00000000000000     0.00000000000000
