CRYSTAL
PRIMVEC
 0.00000000000000 2.11654635266239 2.11654635266239
 2.11654635266239 0.00000000000000 2.11654635266239
 2.11654635266239 2.11654635266239 0.00000000000000
PRIMCOORD
 1 1
  3     0.00000000000000     0.00000000000000     0.00000000000000
