CRYSTAL
PRIMVEC
 2.66886878002612 0.00000000000000 0.00000000000000
 0.00000000000000 2.66886878002612 0.00000000000000
 0.00000000000000 0.00000000000000 2.66886878002612
PRIMCOORD
 1 1
  3     0.00000000000000     0.00000000000000     0.00000000000000
