CRYSTAL
PRIMVEC
 2.66886884060442 0.00000000000000 0.00000000000000
 0.00000000000000 2.66886884060442 0.00000000000000
 0.00000000000000 0.00000000000000 2.66886884060442
PRIMCOORD
 1 1
  3     0.00000000000000     0.00000000000000     0.00000000000000
