CRYSTAL
PRIMVEC
 -1.87785350871802 1.87785350871802 1.87785350871802
 1.87785350871802 -1.87785350871802 1.87785350871802
 1.87785350871802 1.87785350871802 -1.87785350871802
PRIMCOORD
 1 1
 103     0.00000000000000     0.00000000000000     0.00000000000000
