CRYSTAL
PRIMVEC
 -1.87785352110454 1.87785352110454 1.87785352110454
 1.87785352110454 -1.87785352110454 1.87785352110454
 1.87785352110454 1.87785352110454 -1.87785352110454
PRIMCOORD
 1 1
 103     0.00000000000000     0.00000000000000     0.00000000000000
