CRYSTAL
PRIMVEC
 0.00000000000000 2.35165833138540 2.35165833138540
 2.35165833138540 0.00000000000000 2.35165833138540
 2.35165833138540 2.35165833138540 0.00000000000000
PRIMCOORD
 1 1
 103     0.00000000000000     0.00000000000000     0.00000000000000
