CRYSTAL
PRIMVEC
 0.00000000000000 2.35165833349593 2.35165833349593
 2.35165833349593 0.00000000000000 2.35165833349593
 2.35165833349593 2.35165833349593 0.00000000000000
PRIMCOORD
 1 1
 103     0.00000000000000     0.00000000000000     0.00000000000000
