CRYSTAL
PRIMVEC
 3.09489320384380 0.00000000000000 0.00000000000000
 0.00000000000000 3.09489320384380 0.00000000000000
 0.00000000000000 0.00000000000000 3.09489320384380
PRIMCOORD
 1 1
 103     0.00000000000000     0.00000000000000     0.00000000000000
