CRYSTAL
PRIMVEC
 3.09489319698517 0.00000000000000 0.00000000000000
 0.00000000000000 3.09489319698517 0.00000000000000
 0.00000000000000 0.00000000000000 3.09489319698517
PRIMCOORD
 1 1
 103     0.00000000000000     0.00000000000000     0.00000000000000
