CRYSTAL
PRIMVEC
 -1.87053457277242 1.87053457277242 1.87053457277242
 1.87053457277242 -1.87053457277242 1.87053457277242
 1.87053457277242 1.87053457277242 -1.87053457277242
PRIMCOORD
 1 1
 71     0.00000000000000     0.00000000000000     0.00000000000000
