CRYSTAL
PRIMVEC
 -1.87053457313726 1.87053457313726 1.87053457313726
 1.87053457313726 -1.87053457313726 1.87053457313726
 1.87053457313726 1.87053457313726 -1.87053457313726
PRIMCOORD
 1 1
 71     0.00000000000000     0.00000000000000     0.00000000000000
