CRYSTAL
PRIMVEC
 0.00000000000000 2.33735170751653 2.33735170751653
 2.33735170751653 0.00000000000000 2.33735170751653
 2.33735170751653 2.33735170751653 0.00000000000000
PRIMCOORD
 1 1
 71     0.00000000000000     0.00000000000000     0.00000000000000
