CRYSTAL
PRIMVEC
 3.05157739269896 0.00000000000000 0.00000000000000
 0.00000000000000 3.05157739269896 0.00000000000000
 0.00000000000000 0.00000000000000 3.05157739269896
PRIMCOORD
 1 1
 71     0.00000000000000     0.00000000000000     0.00000000000000
