CRYSTAL
PRIMVEC
 3.05157745069331 0.00000000000000 0.00000000000000
 0.00000000000000 3.05157745069331 0.00000000000000
 0.00000000000000 0.00000000000000 3.05157745069331
PRIMCOORD
 1 1
 71     0.00000000000000     0.00000000000000     0.00000000000000
