CRYSTAL
PRIMVEC
 -1.84147581229111 1.84147581229111 1.84147581229111
 1.84147581229111 -1.84147581229111 1.84147581229111
 1.84147581229111 1.84147581229111 -1.84147581229111
PRIMCOORD
 1 1
 101     0.00000000000000     0.00000000000000     0.00000000000000
