CRYSTAL
PRIMVEC
 -1.84147657981988 1.84147657981988 1.84147657981988
 1.84147657981988 -1.84147657981988 1.84147657981988
 1.84147657981988 1.84147657981988 -1.84147657981988
PRIMCOORD
 1 1
 101     0.00000000000000     0.00000000000000     0.00000000000000
