CRYSTAL
PRIMVEC
 0.00000000000000 2.32872769083533 2.32872769083533
 2.32872769083533 0.00000000000000 2.32872769083533
 2.32872769083533 2.32872769083533 0.00000000000000
PRIMCOORD
 1 1
 101     0.00000000000000     0.00000000000000     0.00000000000000
