CRYSTAL
PRIMVEC
 2.98329978440180 0.00000000000000 0.00000000000000
 0.00000000000000 2.98329978440180 0.00000000000000
 0.00000000000000 0.00000000000000 2.98329978440180
PRIMCOORD
 1 1
 101     0.00000000000000     0.00000000000000     0.00000000000000
