CRYSTAL
PRIMVEC
 -1.75429036760603 1.75429036760603 1.75429036760603
 1.75429036760603 -1.75429036760603 1.75429036760603
 1.75429036760603 1.75429036760603 -1.75429036760603
PRIMCOORD
 1 1
 12     0.00000000000000     0.00000000000000     0.00000000000000
