CRYSTAL
PRIMVEC
 -1.75429046108397 1.75429046108397 1.75429046108397
 1.75429046108397 -1.75429046108397 1.75429046108397
 1.75429046108397 1.75429046108397 -1.75429046108397
PRIMCOORD
 1 1
 12     0.00000000000000     0.00000000000000     0.00000000000000
