CRYSTAL
PRIMVEC
 2.96029569392660 0.00000000000000 0.00000000000000
 0.00000000000000 2.96029569392660 0.00000000000000
 0.00000000000000 0.00000000000000 2.96029569392660
PRIMCOORD
 1 1
 12     0.00000000000000     0.00000000000000     0.00000000000000
