CRYSTAL
PRIMVEC
 2.96029571326213 0.00000000000000 0.00000000000000
 0.00000000000000 2.96029571326213 0.00000000000000
 0.00000000000000 0.00000000000000 2.96029571326213
PRIMCOORD
 1 1
 12     0.00000000000000     0.00000000000000     0.00000000000000
