CRYSTAL
PRIMVEC
 -1.36238925149788 1.36238925149788 1.36238925149788
 1.36238925149788 -1.36238925149788 1.36238925149788
 1.36238925149788 1.36238925149788 -1.36238925149788
PRIMCOORD
 1 1
 25     0.00000000000000     0.00000000000000     0.00000000000000
