CRYSTAL
PRIMVEC
 -1.36238924809195 1.36238924809195 1.36238924809195
 1.36238924809195 -1.36238924809195 1.36238924809195
 1.36238924809195 1.36238924809195 -1.36238924809195
PRIMCOORD
 1 1
 25     0.00000000000000     0.00000000000000     0.00000000000000
