CRYSTAL
PRIMVEC
 0.00000000000000 1.71476014676293 1.71476014676293
 1.71476014676293 0.00000000000000 1.71476014676293
 1.71476014676293 1.71476014676293 0.00000000000000
PRIMCOORD
 1 1
 25     0.00000000000000     0.00000000000000     0.00000000000000
