CRYSTAL
PRIMVEC
 2.22872698271310 0.00000000000000 0.00000000000000
 0.00000000000000 2.22872698271310 0.00000000000000
 0.00000000000000 0.00000000000000 2.22872698271310
PRIMCOORD
 1 1
 25     0.00000000000000     0.00000000000000     0.00000000000000
