CRYSTAL
PRIMVEC
 2.22872695416848 0.00000000000000 0.00000000000000
 0.00000000000000 2.22872695416848 0.00000000000000
 0.00000000000000 0.00000000000000 2.22872695416848
PRIMCOORD
 1 1
 25     0.00000000000000     0.00000000000000     0.00000000000000
