CRYSTAL
PRIMVEC
 -1.55590964186173 1.55590964186173 1.55590964186173
 1.55590964186173 -1.55590964186173 1.55590964186173
 1.55590964186173 1.55590964186173 -1.55590964186173
PRIMCOORD
 1 1
 42     0.00000000000000     0.00000000000000     0.00000000000000
