CRYSTAL
PRIMVEC
 -1.55590963886679 1.55590963886679 1.55590963886679
 1.55590963886679 -1.55590963886679 1.55590963886679
 1.55590963886679 1.55590963886679 -1.55590963886679
PRIMCOORD
 1 1
 42     0.00000000000000     0.00000000000000     0.00000000000000
