CRYSTAL
PRIMVEC
 0.00000000000000 1.96850948840012 1.96850948840012
 1.96850948840012 0.00000000000000 1.96850948840012
 1.96850948840012 1.96850948840012 0.00000000000000
PRIMCOORD
 1 1
 42     0.00000000000000     0.00000000000000     0.00000000000000
