CRYSTAL
PRIMVEC
 0.00000000000000 1.96850948915250 1.96850948915250
 1.96850948915250 0.00000000000000 1.96850948915250
 1.96850948915250 1.96850948915250 0.00000000000000
PRIMCOORD
 1 1
 42     0.00000000000000     0.00000000000000     0.00000000000000
