CRYSTAL
PRIMVEC
 2.55507888082446 0.00000000000000 0.00000000000000
 0.00000000000000 2.55507888082446 0.00000000000000
 0.00000000000000 0.00000000000000 2.55507888082446
PRIMCOORD
 1 1
 42     0.00000000000000     0.00000000000000     0.00000000000000
