CRYSTAL
PRIMVEC
 2.55507883565629 0.00000000000000 0.00000000000000
 0.00000000000000 2.55507883565629 0.00000000000000
 0.00000000000000 0.00000000000000 2.55507883565629
PRIMCOORD
 1 1
 42     0.00000000000000     0.00000000000000     0.00000000000000
