CRYSTAL
PRIMVEC
 -1.18724855088714 1.18724855088714 1.18724855088714
 1.18724855088714 -1.18724855088714 1.18724855088714
 1.18724855088714 1.18724855088714 -1.18724855088714
PRIMCOORD
 1 1
  7     0.00000000000000     0.00000000000000     0.00000000000000
