CRYSTAL
PRIMVEC
 -1.18724855110370 1.18724855110370 1.18724855110370
 1.18724855110370 -1.18724855110370 1.18724855110370
 1.18724855110370 1.18724855110370 -1.18724855110370
PRIMCOORD
 1 1
  7     0.00000000000000     0.00000000000000     0.00000000000000
