CRYSTAL
PRIMVEC
 0.00000000000000 1.52234700774095 1.52234700774095
 1.52234700774095 0.00000000000000 1.52234700774095
 1.52234700774095 1.52234700774095 0.00000000000000
PRIMCOORD
 1 1
  7     0.00000000000000     0.00000000000000     0.00000000000000
