CRYSTAL
PRIMVEC
 1.81289365866470 0.00000000000000 0.00000000000000
 0.00000000000000 1.81289365866470 0.00000000000000
 0.00000000000000 0.00000000000000 1.81289365866470
PRIMCOORD
 1 1
  7     0.00000000000000     0.00000000000000     0.00000000000000
