CRYSTAL
PRIMVEC
 1.81289373808021 0.00000000000000 0.00000000000000
 0.00000000000000 1.81289373808021 0.00000000000000
 0.00000000000000 0.00000000000000 1.81289373808021
PRIMCOORD
 1 1
  7     0.00000000000000     0.00000000000000     0.00000000000000
