CRYSTAL
PRIMVEC
 -2.02662650734670 2.02662650734670 2.02662650734670
 2.02662650734670 -2.02662650734670 2.02662650734670
 2.02662650734670 2.02662650734670 -2.02662650734670
PRIMCOORD
 1 1
 11     0.00000000000000     0.00000000000000     0.00000000000000
