CRYSTAL
PRIMVEC
 -2.02662651027484 2.02662651027484 2.02662651027484
 2.02662651027484 -2.02662651027484 2.02662651027484
 2.02662651027484 2.02662651027484 -2.02662651027484
PRIMCOORD
 1 1
 11     0.00000000000000     0.00000000000000     0.00000000000000
