CRYSTAL
PRIMVEC
 0.00000000000000 2.55523441571529 2.55523441571529
 2.55523441571529 0.00000000000000 2.55523441571529
 2.55523441571529 2.55523441571529 0.00000000000000
PRIMCOORD
 1 1
 11     0.00000000000000     0.00000000000000     0.00000000000000
