CRYSTAL
PRIMVEC
 3.29187898626496 0.00000000000000 0.00000000000000
 0.00000000000000 3.29187898626496 0.00000000000000
 0.00000000000000 0.00000000000000 3.29187898626496
PRIMCOORD
 1 1
 11     0.00000000000000     0.00000000000000     0.00000000000000
