CRYSTAL
PRIMVEC
 -1.62376982231416 1.62376982231416 1.62376982231416
 1.62376982231416 -1.62376982231416 1.62376982231416
 1.62376982231416 1.62376982231416 -1.62376982231416
PRIMCOORD
 1 1
 41     0.00000000000000     0.00000000000000     0.00000000000000
