CRYSTAL
PRIMVEC
 -1.62376981914260 1.62376981914260 1.62376981914260
 1.62376981914260 -1.62376981914260 1.62376981914260
 1.62376981914260 1.62376981914260 -1.62376981914260
PRIMCOORD
 1 1
 41     0.00000000000000     0.00000000000000     0.00000000000000
