CRYSTAL
PRIMVEC
 0.00000000000000 2.06974356308235 2.06974356308235
 2.06974356308235 0.00000000000000 2.06974356308235
 2.06974356308235 2.06974356308235 0.00000000000000
PRIMCOORD
 1 1
 41     0.00000000000000     0.00000000000000     0.00000000000000
