CRYSTAL
PRIMVEC
 2.66366553641411 0.00000000000000 0.00000000000000
 0.00000000000000 2.66366553641411 0.00000000000000
 0.00000000000000 0.00000000000000 2.66366553641411
PRIMCOORD
 1 1
 41     0.00000000000000     0.00000000000000     0.00000000000000
