CRYSTAL
PRIMVEC
 2.66366560780964 0.00000000000000 0.00000000000000
 0.00000000000000 2.66366560780964 0.00000000000000
 0.00000000000000 0.00000000000000 2.66366560780964
PRIMCOORD
 1 1
 41     0.00000000000000     0.00000000000000     0.00000000000000
