CRYSTAL
PRIMVEC
 -1.63613662847970 1.63613662847970 1.63613662847970
 1.63613662847970 -1.63613662847970 1.63613662847970
 1.63613662847970 1.63613662847970 -1.63613662847970
PRIMCOORD
 1 1
 60     0.00000000000000     0.00000000000000     0.00000000000000
