CRYSTAL
PRIMVEC
 -1.63613662820957 1.63613662820957 1.63613662820957
 1.63613662820957 -1.63613662820957 1.63613662820957
 1.63613662820957 1.63613662820957 -1.63613662820957
PRIMCOORD
 1 1
 60     0.00000000000000     0.00000000000000     0.00000000000000
