CRYSTAL
PRIMVEC
 0.00000000000000 2.12579620891520 2.12579620891520
 2.12579620891520 0.00000000000000 2.12579620891520
 2.12579620891520 2.12579620891520 0.00000000000000
PRIMCOORD
 1 1
 60     0.00000000000000     0.00000000000000     0.00000000000000
