CRYSTAL
PRIMVEC
 2.55118784383365 0.00000000000000 0.00000000000000
 0.00000000000000 2.55118784383365 0.00000000000000
 0.00000000000000 0.00000000000000 2.55118784383365
PRIMCOORD
 1 1
 60     0.00000000000000     0.00000000000000     0.00000000000000
