CRYSTAL
PRIMVEC
 -1.54053320726160 1.54053320726160 1.54053320726160
 1.54053320726160 -1.54053320726160 1.54053320726160
 1.54053320726160 1.54053320726160 -1.54053320726160
PRIMCOORD
 1 1
 10     0.00000000000000     0.00000000000000     0.00000000000000
