CRYSTAL
PRIMVEC
 -1.54053322061669 1.54053322061669 1.54053322061669
 1.54053322061669 -1.54053322061669 1.54053322061669
 1.54053322061669 1.54053322061669 -1.54053322061669
PRIMCOORD
 1 1
 10     0.00000000000000     0.00000000000000     0.00000000000000
