CRYSTAL
PRIMVEC
 0.00000000000000 1.92974308714375 1.92974308714375
 1.92974308714375 0.00000000000000 1.92974308714375
 1.92974308714375 1.92974308714375 0.00000000000000
PRIMCOORD
 1 1
 10     0.00000000000000     0.00000000000000     0.00000000000000
