CRYSTAL
PRIMVEC
 0.00000000000000 1.92974307347693 1.92974307347693
 1.92974307347693 0.00000000000000 1.92974307347693
 1.92974307347693 1.92974307347693 0.00000000000000
PRIMCOORD
 1 1
 10     0.00000000000000     0.00000000000000     0.00000000000000
