CRYSTAL
PRIMVEC
 2.63639221790405 0.00000000000000 0.00000000000000
 0.00000000000000 2.63639221790405 0.00000000000000
 0.00000000000000 0.00000000000000 2.63639221790405
PRIMCOORD
 1 1
 10     0.00000000000000     0.00000000000000     0.00000000000000
