CRYSTAL
PRIMVEC
 2.63639218842157 0.00000000000000 0.00000000000000
 0.00000000000000 2.63639218842157 0.00000000000000
 0.00000000000000 0.00000000000000 2.63639218842157
PRIMCOORD
 1 1
 10     0.00000000000000     0.00000000000000     0.00000000000000
