CRYSTAL
PRIMVEC
 -1.35913669006339 1.35913669006339 1.35913669006339
 1.35913669006339 -1.35913669006339 1.35913669006339
 1.35913669006339 1.35913669006339 -1.35913669006339
PRIMCOORD
 1 1
 28     0.00000000000000     0.00000000000000     0.00000000000000
