CRYSTAL
PRIMVEC
 -1.35913668846975 1.35913668846975 1.35913668846975
 1.35913668846975 -1.35913668846975 1.35913668846975
 1.35913668846975 1.35913668846975 -1.35913668846975
PRIMCOORD
 1 1
 28     0.00000000000000     0.00000000000000     0.00000000000000
