CRYSTAL
PRIMVEC
 0.00000000000000 1.70946893581966 1.70946893581966
 1.70946893581966 0.00000000000000 1.70946893581966
 1.70946893581966 1.70946893581966 0.00000000000000
PRIMCOORD
 1 1
 28     0.00000000000000     0.00000000000000     0.00000000000000
