CRYSTAL
PRIMVEC
 2.25715773286066 0.00000000000000 0.00000000000000
 0.00000000000000 2.25715773286066 0.00000000000000
 0.00000000000000 0.00000000000000 2.25715773286066
PRIMCOORD
 1 1
 28     0.00000000000000     0.00000000000000     0.00000000000000
