CRYSTAL
PRIMVEC
 -1.97434873715252 1.97434873715252 1.97434873715252
 1.97434873715252 -1.97434873715252 1.97434873715252
 1.97434873715252 1.97434873715252 -1.97434873715252
PRIMCOORD
 1 1
 102     0.00000000000000     0.00000000000000     0.00000000000000
