CRYSTAL
PRIMVEC
 -1.97434908393278 1.97434908393278 1.97434908393278
 1.97434908393278 -1.97434908393278 1.97434908393278
 1.97434908393278 1.97434908393278 -1.97434908393278
PRIMCOORD
 1 1
 102     0.00000000000000     0.00000000000000     0.00000000000000
