CRYSTAL
PRIMVEC
 0.00000000000000 2.49988521137872 2.49988521137872
 2.49988521137872 0.00000000000000 2.49988521137872
 2.49988521137872 2.49988521137872 0.00000000000000
PRIMCOORD
 1 1
 102     0.00000000000000     0.00000000000000     0.00000000000000
