CRYSTAL
PRIMVEC
 3.23627618624150 0.00000000000000 0.00000000000000
 0.00000000000000 3.23627618624150 0.00000000000000
 0.00000000000000 0.00000000000000 3.23627618624150
PRIMCOORD
 1 1
 102     0.00000000000000     0.00000000000000     0.00000000000000
