CRYSTAL
PRIMVEC
 -1.60673978183173 1.60673978183173 1.60673978183173
 1.60673978183173 -1.60673978183173 1.60673978183173
 1.60673978183173 1.60673978183173 -1.60673978183173
PRIMCOORD
 1 1
 93     0.00000000000000     0.00000000000000     0.00000000000000
