CRYSTAL
PRIMVEC
 0.00000000000000 2.07372831452544 2.07372831452544
 2.07372831452544 0.00000000000000 2.07372831452544
 2.07372831452544 2.07372831452544 0.00000000000000
PRIMCOORD
 1 1
 93     0.00000000000000     0.00000000000000     0.00000000000000
