CRYSTAL
PRIMVEC
 2.53426064147167 0.00000000000000 0.00000000000000
 0.00000000000000 2.53426064147167 0.00000000000000
 0.00000000000000 0.00000000000000 2.53426064147167
PRIMCOORD
 1 1
 93     0.00000000000000     0.00000000000000     0.00000000000000
