CRYSTAL
PRIMVEC
 2.53426058027779 0.00000000000000 0.00000000000000
 0.00000000000000 2.53426058027779 0.00000000000000
 0.00000000000000 0.00000000000000 2.53426058027779
PRIMCOORD
 1 1
 93     0.00000000000000     0.00000000000000     0.00000000000000
