CRYSTAL
PRIMVEC
 -1.20712270907533 1.20712270907533 1.20712270907533
 1.20712270907533 -1.20712270907533 1.20712270907533
 1.20712270907533 1.20712270907533 -1.20712270907533
PRIMCOORD
 1 1
  8     0.00000000000000     0.00000000000000     0.00000000000000
