CRYSTAL
PRIMVEC
 -1.20712270844041 1.20712270844041 1.20712270844041
 1.20712270844041 -1.20712270844041 1.20712270844041
 1.20712270844041 1.20712270844041 -1.20712270844041
PRIMCOORD
 1 1
  8     0.00000000000000     0.00000000000000     0.00000000000000
