CRYSTAL
PRIMVEC
 0.00000000000000 1.53267641003036 1.53267641003036
 1.53267641003036 0.00000000000000 1.53267641003036
 1.53267641003036 1.53267641003036 0.00000000000000
PRIMCOORD
 1 1
  8     0.00000000000000     0.00000000000000     0.00000000000000
