CRYSTAL
PRIMVEC
 0.00000000000000 1.53267640868995 1.53267640868995
 1.53267640868995 0.00000000000000 1.53267640868995
 1.53267640868995 1.53267640868995 0.00000000000000
PRIMCOORD
 1 1
  8     0.00000000000000     0.00000000000000     0.00000000000000
