CRYSTAL
PRIMVEC
 1.93998061914325 0.00000000000000 0.00000000000000
 0.00000000000000 1.93998061914325 0.00000000000000
 0.00000000000000 0.00000000000000 1.93998061914325
PRIMCOORD
 1 1
  8     0.00000000000000     0.00000000000000     0.00000000000000
