CRYSTAL
PRIMVEC
 -1.52367101543770 1.52367101543770 1.52367101543770
 1.52367101543770 -1.52367101543770 1.52367101543770
 1.52367101543770 1.52367101543770 -1.52367101543770
PRIMCOORD
 1 1
 76     0.00000000000000     0.00000000000000     0.00000000000000
