CRYSTAL
PRIMVEC
 -1.52367101379070 1.52367101379070 1.52367101379070
 1.52367101379070 -1.52367101379070 1.52367101379070
 1.52367101379070 1.52367101379070 -1.52367101379070
PRIMCOORD
 1 1
 76     0.00000000000000     0.00000000000000     0.00000000000000
