CRYSTAL
PRIMVEC
 2.51708188872581 0.00000000000000 0.00000000000000
 0.00000000000000 2.51708188872581 0.00000000000000
 0.00000000000000 0.00000000000000 2.51708188872581
PRIMCOORD
 1 1
 76     0.00000000000000     0.00000000000000     0.00000000000000
