CRYSTAL
PRIMVEC
 2.51708185721888 0.00000000000000 0.00000000000000
 0.00000000000000 2.51708185721888 0.00000000000000
 0.00000000000000 0.00000000000000 2.51708185721888
PRIMCOORD
 1 1
 76     0.00000000000000     0.00000000000000     0.00000000000000
