CRYSTAL
PRIMVEC
 -1.50330219739722 1.50330219739722 1.50330219739722
 1.50330219739722 -1.50330219739722 1.50330219739722
 1.50330219739722 1.50330219739722 -1.50330219739722
PRIMCOORD
 1 1
 15     0.00000000000000     0.00000000000000     0.00000000000000
