CRYSTAL
PRIMVEC
 -1.50330219695381 1.50330219695381 1.50330219695381
 1.50330219695381 -1.50330219695381 1.50330219695381
 1.50330219695381 1.50330219695381 -1.50330219695381
PRIMCOORD
 1 1
 15     0.00000000000000     0.00000000000000     0.00000000000000
