CRYSTAL
PRIMVEC
 2.41367895835687 0.00000000000000 0.00000000000000
 0.00000000000000 2.41367895835687 0.00000000000000
 0.00000000000000 0.00000000000000 2.41367895835687
PRIMCOORD
 1 1
 15     0.00000000000000     0.00000000000000     0.00000000000000
