CRYSTAL
PRIMVEC
 -1.78967087790268 1.78967087790268 1.78967087790268
 1.78967087790268 -1.78967087790268 1.78967087790268
 1.78967087790268 1.78967087790268 -1.78967087790268
PRIMCOORD
 1 1
 91     0.00000000000000     0.00000000000000     0.00000000000000
