CRYSTAL
PRIMVEC
 -1.78967100866793 1.78967100866793 1.78967100866793
 1.78967100866793 -1.78967100866793 1.78967100866793
 1.78967100866793 1.78967100866793 -1.78967100866793
PRIMCOORD
 1 1
 91     0.00000000000000     0.00000000000000     0.00000000000000
