CRYSTAL
PRIMVEC
 0.00000000000000 2.27327522003824 2.27327522003824
 2.27327522003824 0.00000000000000 2.27327522003824
 2.27327522003824 2.27327522003824 0.00000000000000
PRIMCOORD
 1 1
 91     0.00000000000000     0.00000000000000     0.00000000000000
