CRYSTAL
PRIMVEC
 0.00000000000000 2.27327514695061 2.27327514695061
 2.27327514695061 0.00000000000000 2.27327514695061
 2.27327514695061 2.27327514695061 0.00000000000000
PRIMCOORD
 1 1
 91     0.00000000000000     0.00000000000000     0.00000000000000
