CRYSTAL
PRIMVEC
 2.80043626402446 0.00000000000000 0.00000000000000
 0.00000000000000 2.80043626402446 0.00000000000000
 0.00000000000000 0.00000000000000 2.80043626402446
PRIMCOORD
 1 1
 91     0.00000000000000     0.00000000000000     0.00000000000000
