CRYSTAL
PRIMVEC
 2.80043603679075 0.00000000000000 0.00000000000000
 0.00000000000000 2.80043603679075 0.00000000000000
 0.00000000000000 0.00000000000000 2.80043603679075
PRIMCOORD
 1 1
 91     0.00000000000000     0.00000000000000     0.00000000000000
