CRYSTAL
PRIMVEC
 -1.93454358535273 1.93454358535273 1.93454358535273
 1.93454358535273 -1.93454358535273 1.93454358535273
 1.93454358535273 1.93454358535273 -1.93454358535273
PRIMCOORD
 1 1
 82     0.00000000000000     0.00000000000000     0.00000000000000
