CRYSTAL
PRIMVEC
 -1.93454359198293 1.93454359198293 1.93454359198293
 1.93454359198293 -1.93454359198293 1.93454359198293
 1.93454359198293 1.93454359198293 -1.93454359198293
PRIMCOORD
 1 1
 82     0.00000000000000     0.00000000000000     0.00000000000000
