CRYSTAL
PRIMVEC
 0.00000000000000 2.44069721889855 2.44069721889855
 2.44069721889855 0.00000000000000 2.44069721889855
 2.44069721889855 2.44069721889855 0.00000000000000
PRIMCOORD
 1 1
 82     0.00000000000000     0.00000000000000     0.00000000000000
