CRYSTAL
PRIMVEC
 3.14822466766475 0.00000000000000 0.00000000000000
 0.00000000000000 3.14822466766475 0.00000000000000
 0.00000000000000 0.00000000000000 3.14822466766475
PRIMCOORD
 1 1
 82     0.00000000000000     0.00000000000000     0.00000000000000
