CRYSTAL
PRIMVEC
 3.14822465360971 0.00000000000000 0.00000000000000
 0.00000000000000 3.14822465360971 0.00000000000000
 0.00000000000000 0.00000000000000 3.14822465360971
PRIMCOORD
 1 1
 82     0.00000000000000     0.00000000000000     0.00000000000000
