CRYSTAL
PRIMVEC
 -1.52774211568753 1.52774211568753 1.52774211568753
 1.52774211568753 -1.52774211568753 1.52774211568753
 1.52774211568753 1.52774211568753 -1.52774211568753
PRIMCOORD
 1 1
 46     0.00000000000000     0.00000000000000     0.00000000000000
