CRYSTAL
PRIMVEC
 -1.52774211773120 1.52774211773120 1.52774211773120
 1.52774211773120 -1.52774211773120 1.52774211773120
 1.52774211773120 1.52774211773120 -1.52774211773120
PRIMCOORD
 1 1
 46     0.00000000000000     0.00000000000000     0.00000000000000
