CRYSTAL
PRIMVEC
 0.00000000000000 1.92000914845669 1.92000914845669
 1.92000914845669 0.00000000000000 1.92000914845669
 1.92000914845669 1.92000914845669 0.00000000000000
PRIMCOORD
 1 1
 46     0.00000000000000     0.00000000000000     0.00000000000000
