CRYSTAL
PRIMVEC
 2.53918907887748 0.00000000000000 0.00000000000000
 0.00000000000000 2.53918907887748 0.00000000000000
 0.00000000000000 0.00000000000000 2.53918907887748
PRIMCOORD
 1 1
 46     0.00000000000000     0.00000000000000     0.00000000000000
