CRYSTAL
PRIMVEC
 2.53918908166000 0.00000000000000 0.00000000000000
 0.00000000000000 2.53918908166000 0.00000000000000
 0.00000000000000 0.00000000000000 2.53918908166000
PRIMCOORD
 1 1
 46     0.00000000000000     0.00000000000000     0.00000000000000
