CRYSTAL
PRIMVEC
 -1.60523160615609 1.60523160615609 1.60523160615609
 1.60523160615609 -1.60523160615609 1.60523160615609
 1.60523160615609 1.60523160615609 -1.60523160615609
PRIMCOORD
 1 1
 61     0.00000000000000     0.00000000000000     0.00000000000000
