CRYSTAL
PRIMVEC
 -1.60523160665426 1.60523160665426 1.60523160665426
 1.60523160665426 -1.60523160665426 1.60523160665426
 1.60523160665426 1.60523160665426 -1.60523160665426
PRIMCOORD
 1 1
 61     0.00000000000000     0.00000000000000     0.00000000000000
