CRYSTAL
PRIMVEC
 0.00000000000000 2.09178539073918 2.09178539073918
 2.09178539073918 0.00000000000000 2.09178539073918
 2.09178539073918 2.09178539073918 0.00000000000000
PRIMCOORD
 1 1
 61     0.00000000000000     0.00000000000000     0.00000000000000
