CRYSTAL
PRIMVEC
 0.00000000000000 2.09178539521531 2.09178539521531
 2.09178539521531 0.00000000000000 2.09178539521531
 2.09178539521531 2.09178539521531 0.00000000000000
PRIMCOORD
 1 1
 61     0.00000000000000     0.00000000000000     0.00000000000000
