CRYSTAL
PRIMVEC
 2.50805368218153 0.00000000000000 0.00000000000000
 0.00000000000000 2.50805368218153 0.00000000000000
 0.00000000000000 0.00000000000000 2.50805368218153
PRIMCOORD
 1 1
 61     0.00000000000000     0.00000000000000     0.00000000000000
