CRYSTAL
PRIMVEC
 2.50805368398575 0.00000000000000 0.00000000000000
 0.00000000000000 2.50805368398575 0.00000000000000
 0.00000000000000 0.00000000000000 2.50805368398575
PRIMCOORD
 1 1
 61     0.00000000000000     0.00000000000000     0.00000000000000
