CRYSTAL
PRIMVEC
 -1.97043133387583 1.97043133387583 1.97043133387583
 1.97043133387583 -1.97043133387583 1.97043133387583
 1.97043133387583 1.97043133387583 -1.97043133387583
PRIMCOORD
 1 1
 84     0.00000000000000     0.00000000000000     0.00000000000000
