CRYSTAL
PRIMVEC
 -1.97043143102618 1.97043143102618 1.97043143102618
 1.97043143102618 -1.97043143102618 1.97043143102618
 1.97043143102618 1.97043143102618 -1.97043143102618
PRIMCOORD
 1 1
 84     0.00000000000000     0.00000000000000     0.00000000000000
