CRYSTAL
PRIMVEC
 0.00000000000000 2.47409841999853 2.47409841999853
 2.47409841999853 0.00000000000000 2.47409841999853
 2.47409841999853 2.47409841999853 0.00000000000000
PRIMCOORD
 1 1
 84     0.00000000000000     0.00000000000000     0.00000000000000
