CRYSTAL
PRIMVEC
 3.27517195195551 0.00000000000000 0.00000000000000
 0.00000000000000 3.27517195195551 0.00000000000000
 0.00000000000000 0.00000000000000 3.27517195195551
PRIMCOORD
 1 1
 84     0.00000000000000     0.00000000000000     0.00000000000000
