CRYSTAL
PRIMVEC
 3.27517192411285 0.00000000000000 0.00000000000000
 0.00000000000000 3.27517192411285 0.00000000000000
 0.00000000000000 0.00000000000000 3.27517192411285
PRIMCOORD
 1 1
 84     0.00000000000000     0.00000000000000     0.00000000000000
