CRYSTAL
PRIMVEC
 -1.69351215181836 1.69351215181836 1.69351215181836
 1.69351215181836 -1.69351215181836 1.69351215181836
 1.69351215181836 1.69351215181836 -1.69351215181836
PRIMCOORD
 1 1
 59     0.00000000000000     0.00000000000000     0.00000000000000
