CRYSTAL
PRIMVEC
 0.00000000000000 2.17924757436241 2.17924757436241
 2.17924757436241 0.00000000000000 2.17924757436241
 2.17924757436241 2.17924757436241 0.00000000000000
PRIMCOORD
 1 1
 59     0.00000000000000     0.00000000000000     0.00000000000000
