CRYSTAL
PRIMVEC
 0.00000000000000 2.17924758794360 2.17924758794360
 2.17924758794360 0.00000000000000 2.17924758794360
 2.17924758794360 2.17924758794360 0.00000000000000
PRIMCOORD
 1 1
 59     0.00000000000000     0.00000000000000     0.00000000000000
