CRYSTAL
PRIMVEC
 2.63999366746533 0.00000000000000 0.00000000000000
 0.00000000000000 2.63999366746533 0.00000000000000
 0.00000000000000 0.00000000000000 2.63999366746533
PRIMCOORD
 1 1
 59     0.00000000000000     0.00000000000000     0.00000000000000
