CRYSTAL
PRIMVEC
 2.63999367146052 0.00000000000000 0.00000000000000
 0.00000000000000 2.63999367146052 0.00000000000000
 0.00000000000000 0.00000000000000 2.63999367146052
PRIMCOORD
 1 1
 59     0.00000000000000     0.00000000000000     0.00000000000000
