CRYSTAL
PRIMVEC
 -1.55117344750604 1.55117344750604 1.55117344750604
 1.55117344750604 -1.55117344750604 1.55117344750604
 1.55117344750604 1.55117344750604 -1.55117344750604
PRIMCOORD
 1 1
 78     0.00000000000000     0.00000000000000     0.00000000000000
