CRYSTAL
PRIMVEC
 -1.55117345736480 1.55117345736480 1.55117345736480
 1.55117345736480 -1.55117345736480 1.55117345736480
 1.55117345736480 1.55117345736480 -1.55117345736480
PRIMCOORD
 1 1
 78     0.00000000000000     0.00000000000000     0.00000000000000
