CRYSTAL
PRIMVEC
 0.00000000000000 1.94748145123702 1.94748145123702
 1.94748145123702 0.00000000000000 1.94748145123702
 1.94748145123702 1.94748145123702 0.00000000000000
PRIMCOORD
 1 1
 78     0.00000000000000     0.00000000000000     0.00000000000000
