CRYSTAL
PRIMVEC
 2.56993095158811 0.00000000000000 0.00000000000000
 0.00000000000000 2.56993095158811 0.00000000000000
 0.00000000000000 0.00000000000000 2.56993095158811
PRIMCOORD
 1 1
 78     0.00000000000000     0.00000000000000     0.00000000000000
