CRYSTAL
PRIMVEC
 -1.56886016531375 1.56886016531375 1.56886016531375
 1.56886016531375 -1.56886016531375 1.56886016531375
 1.56886016531375 1.56886016531375 -1.56886016531375
PRIMCOORD
 1 1
 94     0.00000000000000     0.00000000000000     0.00000000000000
