CRYSTAL
PRIMVEC
 -1.56886017310164 1.56886017310164 1.56886017310164
 1.56886017310164 -1.56886017310164 1.56886017310164
 1.56886017310164 1.56886017310164 -1.56886017310164
PRIMCOORD
 1 1
 94     0.00000000000000     0.00000000000000     0.00000000000000
