CRYSTAL
PRIMVEC
 0.00000000000000 2.01731102735345 2.01731102735345
 2.01731102735345 0.00000000000000 2.01731102735345
 2.01731102735345 2.01731102735345 0.00000000000000
PRIMCOORD
 1 1
 94     0.00000000000000     0.00000000000000     0.00000000000000
