CRYSTAL
PRIMVEC
 2.48634521316976 0.00000000000000 0.00000000000000
 0.00000000000000 2.48634521316976 0.00000000000000
 0.00000000000000 0.00000000000000 2.48634521316976
PRIMCOORD
 1 1
 94     0.00000000000000     0.00000000000000     0.00000000000000
