CRYSTAL
PRIMVEC
 2.48634526044631 0.00000000000000 0.00000000000000
 0.00000000000000 2.48634526044631 0.00000000000000
 0.00000000000000 0.00000000000000 2.48634526044631
PRIMCOORD
 1 1
 94     0.00000000000000     0.00000000000000     0.00000000000000
