CRYSTAL
PRIMVEC
 -2.47592064886990 2.47592064886990 2.47592064886990
 2.47592064886990 -2.47592064886990 2.47592064886990
 2.47592064886990 2.47592064886990 -2.47592064886990
PRIMCOORD
 1 1
 88     0.00000000000000     0.00000000000000     0.00000000000000
