CRYSTAL
PRIMVEC
 -2.47592068223138 2.47592068223138 2.47592068223138
 2.47592068223138 -2.47592068223138 2.47592068223138
 2.47592068223138 2.47592068223138 -2.47592068223138
PRIMCOORD
 1 1
 88     0.00000000000000     0.00000000000000     0.00000000000000
