CRYSTAL
PRIMVEC
 0.00000000000000 3.11893900892717 3.11893900892717
 3.11893900892717 0.00000000000000 3.11893900892717
 3.11893900892717 3.11893900892717 0.00000000000000
PRIMCOORD
 1 1
 88     0.00000000000000     0.00000000000000     0.00000000000000
