CRYSTAL
PRIMVEC
 3.98316838722705 0.00000000000000 0.00000000000000
 0.00000000000000 3.98316838722705 0.00000000000000
 0.00000000000000 0.00000000000000 3.98316838722705
PRIMCOORD
 1 1
 88     0.00000000000000     0.00000000000000     0.00000000000000
