CRYSTAL
PRIMVEC
 -2.68724086565552 2.68724086565552 2.68724086565552
 2.68724086565552 -2.68724086565552 2.68724086565552
 2.68724086565552 2.68724086565552 -2.68724086565552
PRIMCOORD
 1 1
 37     0.00000000000000     0.00000000000000     0.00000000000000
