CRYSTAL
PRIMVEC
 -2.68724086466373 2.68724086466373 2.68724086466373
 2.68724086466373 -2.68724086466373 2.68724086466373
 2.68724086466373 2.68724086466373 -2.68724086466373
PRIMCOORD
 1 1
 37     0.00000000000000     0.00000000000000     0.00000000000000
