CRYSTAL
PRIMVEC
 0.00000000000000 3.38988839149656 3.38988839149656
 3.38988839149656 0.00000000000000 3.38988839149656
 3.38988839149656 3.38988839149656 0.00000000000000
PRIMCOORD
 1 1
 37     0.00000000000000     0.00000000000000     0.00000000000000
