CRYSTAL
PRIMVEC
 4.38613704810954 0.00000000000000 0.00000000000000
 0.00000000000000 4.38613704810954 0.00000000000000
 0.00000000000000 0.00000000000000 4.38613704810954
PRIMCOORD
 1 1
 37     0.00000000000000     0.00000000000000     0.00000000000000
