CRYSTAL
PRIMVEC
 4.38613704763432 0.00000000000000 0.00000000000000
 0.00000000000000 4.38613704763432 0.00000000000000
 0.00000000000000 0.00000000000000 4.38613704763432
PRIMCOORD
 1 1
 37     0.00000000000000     0.00000000000000     0.00000000000000
