CRYSTAL
PRIMVEC
 -1.53552785811191 1.53552785811191 1.53552785811191
 1.53552785811191 -1.53552785811191 1.53552785811191
 1.53552785811191 1.53552785811191 -1.53552785811191
PRIMCOORD
 1 1
 75     0.00000000000000     0.00000000000000     0.00000000000000
