CRYSTAL
PRIMVEC
 -1.53552781848219 1.53552781848219 1.53552781848219
 1.53552781848219 -1.53552781848219 1.53552781848219
 1.53552781848219 1.53552781848219 -1.53552781848219
PRIMCOORD
 1 1
 75     0.00000000000000     0.00000000000000     0.00000000000000
