CRYSTAL
PRIMVEC
 0.00000000000000 1.93064206780036 1.93064206780036
 1.93064206780036 0.00000000000000 1.93064206780036
 1.93064206780036 1.93064206780036 0.00000000000000
PRIMCOORD
 1 1
 75     0.00000000000000     0.00000000000000     0.00000000000000
