CRYSTAL
PRIMVEC
 0.00000000000000 1.93064207707741 1.93064207707741
 1.93064207707741 0.00000000000000 1.93064207707741
 1.93064207707741 1.93064207707741 0.00000000000000
PRIMCOORD
 1 1
 75     0.00000000000000     0.00000000000000     0.00000000000000
