CRYSTAL
PRIMVEC
 2.53825808919359 0.00000000000000 0.00000000000000
 0.00000000000000 2.53825808919359 0.00000000000000
 0.00000000000000 0.00000000000000 2.53825808919359
PRIMCOORD
 1 1
 75     0.00000000000000     0.00000000000000     0.00000000000000
