CRYSTAL
PRIMVEC
 2.53825809251017 0.00000000000000 0.00000000000000
 0.00000000000000 2.53825809251017 0.00000000000000
 0.00000000000000 0.00000000000000 2.53825809251017
PRIMCOORD
 1 1
 75     0.00000000000000     0.00000000000000     0.00000000000000
