CRYSTAL
PRIMVEC
 -1.50365847502271 1.50365847502271 1.50365847502271
 1.50365847502271 -1.50365847502271 1.50365847502271
 1.50365847502271 1.50365847502271 -1.50365847502271
PRIMCOORD
 1 1
 45     0.00000000000000     0.00000000000000     0.00000000000000
