CRYSTAL
PRIMVEC
 -1.50365847770944 1.50365847770944 1.50365847770944
 1.50365847770944 -1.50365847770944 1.50365847770944
 1.50365847770944 1.50365847770944 -1.50365847770944
PRIMCOORD
 1 1
 45     0.00000000000000     0.00000000000000     0.00000000000000
