CRYSTAL
PRIMVEC
 0.00000000000000 1.87721274096445 1.87721274096445
 1.87721274096445 0.00000000000000 1.87721274096445
 1.87721274096445 1.87721274096445 0.00000000000000
PRIMCOORD
 1 1
 45     0.00000000000000     0.00000000000000     0.00000000000000
