CRYSTAL
PRIMVEC
 2.48013600694583 0.00000000000000 0.00000000000000
 0.00000000000000 2.48013600694583 0.00000000000000
 0.00000000000000 0.00000000000000 2.48013600694583
PRIMCOORD
 1 1
 45     0.00000000000000     0.00000000000000     0.00000000000000
