CRYSTAL
PRIMVEC
 2.48013601303459 0.00000000000000 0.00000000000000
 0.00000000000000 2.48013601303459 0.00000000000000
 0.00000000000000 0.00000000000000 2.48013601303459
PRIMCOORD
 1 1
 45     0.00000000000000     0.00000000000000     0.00000000000000
