CRYSTAL
PRIMVEC
 -2.40990042886751 2.40990042886751 2.40990042886751
 2.40990042886751 -2.40990042886751 2.40990042886751
 2.40990042886751 2.40990042886751 -2.40990042886751
PRIMCOORD
 1 1
 86     0.00000000000000     0.00000000000000     0.00000000000000
