CRYSTAL
PRIMVEC
 -2.40990044502257 2.40990044502257 2.40990044502257
 2.40990044502257 -2.40990044502257 2.40990044502257
 2.40990044502257 2.40990044502257 -2.40990044502257
PRIMCOORD
 1 1
 86     0.00000000000000     0.00000000000000     0.00000000000000
