CRYSTAL
PRIMVEC
 4.17044133032046 0.00000000000000 0.00000000000000
 0.00000000000000 4.17044133032046 0.00000000000000
 0.00000000000000 0.00000000000000 4.17044133032046
PRIMCOORD
 1 1
 86     0.00000000000000     0.00000000000000     0.00000000000000
