CRYSTAL
PRIMVEC
 4.17044129956208 0.00000000000000 0.00000000000000
 0.00000000000000 4.17044129956208 0.00000000000000
 0.00000000000000 0.00000000000000 4.17044129956208
PRIMCOORD
 1 1
 86     0.00000000000000     0.00000000000000     0.00000000000000
