CRYSTAL
PRIMVEC
 -1.50013277243553 1.50013277243553 1.50013277243553
 1.50013277243553 -1.50013277243553 1.50013277243553
 1.50013277243553 1.50013277243553 -1.50013277243553
PRIMCOORD
 1 1
 44     0.00000000000000     0.00000000000000     0.00000000000000
