CRYSTAL
PRIMVEC
 -1.50013277535791 1.50013277535791 1.50013277535791
 1.50013277535791 -1.50013277535791 1.50013277535791
 1.50013277535791 1.50013277535791 -1.50013277535791
PRIMCOORD
 1 1
 44     0.00000000000000     0.00000000000000     0.00000000000000
