CRYSTAL
PRIMVEC
 0.00000000000000 1.87354382188238 1.87354382188238
 1.87354382188238 0.00000000000000 1.87354382188238
 1.87354382188238 1.87354382188238 0.00000000000000
PRIMCOORD
 1 1
 44     0.00000000000000     0.00000000000000     0.00000000000000
