CRYSTAL
PRIMVEC
 0.00000000000000 1.87354382312251 1.87354382312251
 1.87354382312251 0.00000000000000 1.87354382312251
 1.87354382312251 1.87354382312251 0.00000000000000
PRIMCOORD
 1 1
 44     0.00000000000000     0.00000000000000     0.00000000000000
