CRYSTAL
PRIMVEC
 2.46417024200848 0.00000000000000 0.00000000000000
 0.00000000000000 2.46417024200848 0.00000000000000
 0.00000000000000 0.00000000000000 2.46417024200848
PRIMCOORD
 1 1
 44     0.00000000000000     0.00000000000000     0.00000000000000
