CRYSTAL
PRIMVEC
 2.46417024741491 0.00000000000000 0.00000000000000
 0.00000000000000 2.46417024741491 0.00000000000000
 0.00000000000000 0.00000000000000 2.46417024741491
PRIMCOORD
 1 1
 44     0.00000000000000     0.00000000000000     0.00000000000000
