CRYSTAL
PRIMVEC
 -1.54170287376165 1.54170287376165 1.54170287376165
 1.54170287376165 -1.54170287376165 1.54170287376165
 1.54170287376165 1.54170287376165 -1.54170287376165
PRIMCOORD
 1 1
 16     0.00000000000000     0.00000000000000     0.00000000000000
