CRYSTAL
PRIMVEC
 -1.54170266885415 1.54170266885415 1.54170266885415
 1.54170266885415 -1.54170266885415 1.54170266885415
 1.54170266885415 1.54170266885415 -1.54170266885415
PRIMCOORD
 1 1
 16     0.00000000000000     0.00000000000000     0.00000000000000
