CRYSTAL
PRIMVEC
 0.00000000000000 1.94554876157046 1.94554876157046
 1.94554876157046 0.00000000000000 1.94554876157046
 1.94554876157046 1.94554876157046 0.00000000000000
PRIMCOORD
 1 1
 16     0.00000000000000     0.00000000000000     0.00000000000000
