CRYSTAL
PRIMVEC
 2.52840329838458 0.00000000000000 0.00000000000000
 0.00000000000000 2.52840329838458 0.00000000000000
 0.00000000000000 0.00000000000000 2.52840329838458
PRIMCOORD
 1 1
 16     0.00000000000000     0.00000000000000     0.00000000000000
