CRYSTAL
PRIMVEC
 -1.85406310810294 1.85406310810294 1.85406310810294
 1.85406310810294 -1.85406310810294 1.85406310810294
 1.85406310810294 1.85406310810294 -1.85406310810294
PRIMCOORD
 1 1
 51     0.00000000000000     0.00000000000000     0.00000000000000
