CRYSTAL
PRIMVEC
 -1.85406311981068 1.85406311981068 1.85406311981068
 1.85406311981068 -1.85406311981068 1.85406311981068
 1.85406311981068 1.85406311981068 -1.85406311981068
PRIMCOORD
 1 1
 51     0.00000000000000     0.00000000000000     0.00000000000000
