CRYSTAL
PRIMVEC
 0.00000000000000 2.34330894033240 2.34330894033240
 2.34330894033240 0.00000000000000 2.34330894033240
 2.34330894033240 2.34330894033240 0.00000000000000
PRIMCOORD
 1 1
 51     0.00000000000000     0.00000000000000     0.00000000000000
