CRYSTAL
PRIMVEC
 3.04073076230852 0.00000000000000 0.00000000000000
 0.00000000000000 3.04073076230852 0.00000000000000
 0.00000000000000 0.00000000000000 3.04073076230852
PRIMCOORD
 1 1
 51     0.00000000000000     0.00000000000000     0.00000000000000
