CRYSTAL
PRIMVEC
 3.04072967408996 0.00000000000000 0.00000000000000
 0.00000000000000 3.04072967408996 0.00000000000000
 0.00000000000000 0.00000000000000 3.04072967408996
PRIMCOORD
 1 1
 51     0.00000000000000     0.00000000000000     0.00000000000000
