CRYSTAL
PRIMVEC
 -1.78385562941639 1.78385562941639 1.78385562941639
 1.78385562941639 -1.78385562941639 1.78385562941639
 1.78385562941639 1.78385562941639 -1.78385562941639
PRIMCOORD
 1 1
 21     0.00000000000000     0.00000000000000     0.00000000000000
