CRYSTAL
PRIMVEC
 -1.78385563015099 1.78385563015099 1.78385563015099
 1.78385563015099 -1.78385563015099 1.78385563015099
 1.78385563015099 1.78385563015099 -1.78385563015099
PRIMCOORD
 1 1
 21     0.00000000000000     0.00000000000000     0.00000000000000
