CRYSTAL
PRIMVEC
 0.00000000000000 2.23701168225825 2.23701168225825
 2.23701168225825 0.00000000000000 2.23701168225825
 2.23701168225825 2.23701168225825 0.00000000000000
PRIMCOORD
 1 1
 21     0.00000000000000     0.00000000000000     0.00000000000000
