CRYSTAL
PRIMVEC
 2.84909302906437 0.00000000000000 0.00000000000000
 0.00000000000000 2.84909302906437 0.00000000000000
 0.00000000000000 0.00000000000000 2.84909302906437
PRIMCOORD
 1 1
 21     0.00000000000000     0.00000000000000     0.00000000000000
