CRYSTAL
PRIMVEC
 2.84909302475370 0.00000000000000 0.00000000000000
 0.00000000000000 2.84909302475370 0.00000000000000
 0.00000000000000 0.00000000000000 2.84909302475370
PRIMCOORD
 1 1
 21     0.00000000000000     0.00000000000000     0.00000000000000
