CRYSTAL
PRIMVEC
 -1.67865578285582 1.67865578285582 1.67865578285582
 1.67865578285582 -1.67865578285582 1.67865578285582
 1.67865578285582 1.67865578285582 -1.67865578285582
PRIMCOORD
 1 1
 34     0.00000000000000     0.00000000000000     0.00000000000000
