CRYSTAL
PRIMVEC
 -1.67865579475591 1.67865579475591 1.67865579475591
 1.67865579475591 -1.67865579475591 1.67865579475591
 1.67865579475591 1.67865579475591 -1.67865579475591
PRIMCOORD
 1 1
 34     0.00000000000000     0.00000000000000     0.00000000000000
