CRYSTAL
PRIMVEC
 0.00000000000000 2.11438082818269 2.11438082818269
 2.11438082818269 0.00000000000000 2.11438082818269
 2.11438082818269 2.11438082818269 0.00000000000000
PRIMCOORD
 1 1
 34     0.00000000000000     0.00000000000000     0.00000000000000
