CRYSTAL
PRIMVEC
 2.76871792902015 0.00000000000000 0.00000000000000
 0.00000000000000 2.76871792902015 0.00000000000000
 0.00000000000000 0.00000000000000 2.76871792902015
PRIMCOORD
 1 1
 34     0.00000000000000     0.00000000000000     0.00000000000000
