CRYSTAL
PRIMVEC
 2.76871784502629 0.00000000000000 0.00000000000000
 0.00000000000000 2.76871784502629 0.00000000000000
 0.00000000000000 0.00000000000000 2.76871784502629
PRIMCOORD
 1 1
 34     0.00000000000000     0.00000000000000     0.00000000000000
