CRYSTAL
PRIMVEC
 -1.52249214622826 1.52249214622826 1.52249214622826
 1.52249214622826 -1.52249214622826 1.52249214622826
 1.52249214622826 1.52249214622826 -1.52249214622826
PRIMCOORD
 1 1
 14     0.00000000000000     0.00000000000000     0.00000000000000
