CRYSTAL
PRIMVEC
 2.50143504608336 0.00000000000000 0.00000000000000
 0.00000000000000 2.50143504608336 0.00000000000000
 0.00000000000000 0.00000000000000 2.50143504608336
PRIMCOORD
 1 1
 14     0.00000000000000     0.00000000000000     0.00000000000000
