CRYSTAL
PRIMVEC
 2.50143502554545 0.00000000000000 0.00000000000000
 0.00000000000000 2.50143502554545 0.00000000000000
 0.00000000000000 0.00000000000000 2.50143502554545
PRIMCOORD
 1 1
 14     0.00000000000000     0.00000000000000     0.00000000000000
