CRYSTAL
PRIMVEC
 -1.59695786881941 1.59695786881941 1.59695786881941
 1.59695786881941 -1.59695786881941 1.59695786881941
 1.59695786881941 1.59695786881941 -1.59695786881941
PRIMCOORD
 1 1
 62     0.00000000000000     0.00000000000000     0.00000000000000
