CRYSTAL
PRIMVEC
 -1.59695787571922 1.59695787571922 1.59695787571922
 1.59695787571922 -1.59695787571922 1.59695787571922
 1.59695787571922 1.59695787571922 -1.59695787571922
PRIMCOORD
 1 1
 62     0.00000000000000     0.00000000000000     0.00000000000000
