CRYSTAL
PRIMVEC
 2.48945135264608 0.00000000000000 0.00000000000000
 0.00000000000000 2.48945135264608 0.00000000000000
 0.00000000000000 0.00000000000000 2.48945135264608
PRIMCOORD
 1 1
 62     0.00000000000000     0.00000000000000     0.00000000000000
