CRYSTAL
PRIMVEC
 -1.85361562873588 1.85361562873588 1.85361562873588
 1.85361562873588 -1.85361562873588 1.85361562873588
 1.85361562873588 1.85361562873588 -1.85361562873588
PRIMCOORD
 1 1
 50     0.00000000000000     0.00000000000000     0.00000000000000
