CRYSTAL
PRIMVEC
 -1.85361560708438 1.85361560708438 1.85361560708438
 1.85361560708438 -1.85361560708438 1.85361560708438
 1.85361560708438 1.85361560708438 -1.85361560708438
PRIMCOORD
 1 1
 50     0.00000000000000     0.00000000000000     0.00000000000000
