CRYSTAL
PRIMVEC
 0.00000000000000 2.34696998618006 2.34696998618006
 2.34696998618006 0.00000000000000 2.34696998618006
 2.34696998618006 2.34696998618006 0.00000000000000
PRIMCOORD
 1 1
 50     0.00000000000000     0.00000000000000     0.00000000000000
