CRYSTAL
PRIMVEC
 3.00512563755652 0.00000000000000 0.00000000000000
 0.00000000000000 3.00512563755652 0.00000000000000
 0.00000000000000 0.00000000000000 3.00512563755652
PRIMCOORD
 1 1
 50     0.00000000000000     0.00000000000000     0.00000000000000
