CRYSTAL
PRIMVEC
 3.00512554931344 0.00000000000000 0.00000000000000
 0.00000000000000 3.00512554931344 0.00000000000000
 0.00000000000000 0.00000000000000 3.00512554931344
PRIMCOORD
 1 1
 50     0.00000000000000     0.00000000000000     0.00000000000000
