CRYSTAL
PRIMVEC
 -2.28509247040918 2.28509247040918 2.28509247040918
 2.28509247040918 -2.28509247040918 2.28509247040918
 2.28509247040918 2.28509247040918 -2.28509247040918
PRIMCOORD
 1 1
 38     0.00000000000000     0.00000000000000     0.00000000000000
