CRYSTAL
PRIMVEC
 -2.28509246705426 2.28509246705426 2.28509246705426
 2.28509246705426 -2.28509246705426 2.28509246705426
 2.28509246705426 2.28509246705426 -2.28509246705426
PRIMCOORD
 1 1
 38     0.00000000000000     0.00000000000000     0.00000000000000
