CRYSTAL
PRIMVEC
 3.64503293119281 0.00000000000000 0.00000000000000
 0.00000000000000 3.64503293119281 0.00000000000000
 0.00000000000000 0.00000000000000 3.64503293119281
PRIMCOORD
 1 1
 38     0.00000000000000     0.00000000000000     0.00000000000000
