CRYSTAL
PRIMVEC
 3.64503307363014 0.00000000000000 0.00000000000000
 0.00000000000000 3.64503307363014 0.00000000000000
 0.00000000000000 0.00000000000000 3.64503307363014
PRIMCOORD
 1 1
 38     0.00000000000000     0.00000000000000     0.00000000000000
