CRYSTAL
PRIMVEC
 -1.62631068272321 1.62631068272321 1.62631068272321
 1.62631068272321 -1.62631068272321 1.62631068272321
 1.62631068272321 1.62631068272321 -1.62631068272321
PRIMCOORD
 1 1
 73     0.00000000000000     0.00000000000000     0.00000000000000
