CRYSTAL
PRIMVEC
 0.00000000000000 2.07046558989883 2.07046558989883
 2.07046558989883 0.00000000000000 2.07046558989883
 2.07046558989883 2.07046558989883 0.00000000000000
PRIMCOORD
 1 1
 73     0.00000000000000     0.00000000000000     0.00000000000000
