CRYSTAL
PRIMVEC
 2.68359036433743 0.00000000000000 0.00000000000000
 0.00000000000000 2.68359036433743 0.00000000000000
 0.00000000000000 0.00000000000000 2.68359036433743
PRIMCOORD
 1 1
 73     0.00000000000000     0.00000000000000     0.00000000000000
