CRYSTAL
PRIMVEC
 -1.79191720992738 1.79191720992738 1.79191720992738
 1.79191720992738 -1.79191720992738 1.79191720992738
 1.79191720992738 1.79191720992738 -1.79191720992738
PRIMCOORD
 1 1
 65     0.00000000000000     0.00000000000000     0.00000000000000
