CRYSTAL
PRIMVEC
 -1.79191678642603 1.79191678642603 1.79191678642603
 1.79191678642603 -1.79191678642603 1.79191678642603
 1.79191678642603 1.79191678642603 -1.79191678642603
PRIMCOORD
 1 1
 65     0.00000000000000     0.00000000000000     0.00000000000000
