CRYSTAL
PRIMVEC
 0.00000000000000 2.24287496909621 2.24287496909621
 2.24287496909621 0.00000000000000 2.24287496909621
 2.24287496909621 2.24287496909621 0.00000000000000
PRIMCOORD
 1 1
 65     0.00000000000000     0.00000000000000     0.00000000000000
