CRYSTAL
PRIMVEC
 2.57458374405448 0.00000000000000 0.00000000000000
 0.00000000000000 2.57458374405448 0.00000000000000
 0.00000000000000 0.00000000000000 2.57458374405448
PRIMCOORD
 1 1
 65     0.00000000000000     0.00000000000000     0.00000000000000
