CRYSTAL
PRIMVEC
 2.57458384861671 0.00000000000000 0.00000000000000
 0.00000000000000 2.57458384861671 0.00000000000000
 0.00000000000000 0.00000000000000 2.57458384861671
PRIMCOORD
 1 1
 65     0.00000000000000     0.00000000000000     0.00000000000000
