CRYSTAL
PRIMVEC
 -1.51618611214085 1.51618611214085 1.51618611214085
 1.51618611214085 -1.51618611214085 1.51618611214085
 1.51618611214085 1.51618611214085 -1.51618611214085
PRIMCOORD
 1 1
 43     0.00000000000000     0.00000000000000     0.00000000000000
