CRYSTAL
PRIMVEC
 0.00000000000000 1.90577550378477 1.90577550378477
 1.90577550378477 0.00000000000000 1.90577550378477
 1.90577550378477 1.90577550378477 0.00000000000000
PRIMCOORD
 1 1
 43     0.00000000000000     0.00000000000000     0.00000000000000
