CRYSTAL
PRIMVEC
 0.00000000000000 1.90577550534993 1.90577550534993
 1.90577550534993 0.00000000000000 1.90577550534993
 1.90577550534993 1.90577550534993 0.00000000000000
PRIMCOORD
 1 1
 43     0.00000000000000     0.00000000000000     0.00000000000000
