CRYSTAL
PRIMVEC
 2.48768007630080 0.00000000000000 0.00000000000000
 0.00000000000000 2.48768007630080 0.00000000000000
 0.00000000000000 0.00000000000000 2.48768007630080
PRIMCOORD
 1 1
 43     0.00000000000000     0.00000000000000     0.00000000000000
