CRYSTAL
PRIMVEC
 -1.88116654879608 1.88116654879608 1.88116654879608
 1.88116654879608 -1.88116654879608 1.88116654879608
 1.88116654879608 1.88116654879608 -1.88116654879608
PRIMCOORD
 1 1
 52     0.00000000000000     0.00000000000000     0.00000000000000
