CRYSTAL
PRIMVEC
 -1.88116656994648 1.88116656994648 1.88116656994648
 1.88116656994648 -1.88116656994648 1.88116656994648
 1.88116656994648 1.88116656994648 -1.88116656994648
PRIMCOORD
 1 1
 52     0.00000000000000     0.00000000000000     0.00000000000000
