CRYSTAL
PRIMVEC
 0.00000000000000 2.36244930089968 2.36244930089968
 2.36244930089968 0.00000000000000 2.36244930089968
 2.36244930089968 2.36244930089968 0.00000000000000
PRIMCOORD
 1 1
 52     0.00000000000000     0.00000000000000     0.00000000000000
