CRYSTAL
PRIMVEC
 3.13253265279318 0.00000000000000 0.00000000000000
 0.00000000000000 3.13253265279318 0.00000000000000
 0.00000000000000 0.00000000000000 3.13253265279318
PRIMCOORD
 1 1
 52     0.00000000000000     0.00000000000000     0.00000000000000
