CRYSTAL
PRIMVEC
 3.13253268207371 0.00000000000000 0.00000000000000
 0.00000000000000 3.13253268207371 0.00000000000000
 0.00000000000000 0.00000000000000 3.13253268207371
PRIMCOORD
 1 1
 52     0.00000000000000     0.00000000000000     0.00000000000000
