CRYSTAL
PRIMVEC
 -1.96074576648137 1.96074576648137 1.96074576648137
 1.96074576648137 -1.96074576648137 1.96074576648137
 1.96074576648137 1.96074576648137 -1.96074576648137
PRIMCOORD
 1 1
 90     0.00000000000000     0.00000000000000     0.00000000000000
