CRYSTAL
PRIMVEC
 -1.96074561790627 1.96074561790627 1.96074561790627
 1.96074561790627 -1.96074561790627 1.96074561790627
 1.96074561790627 1.96074561790627 -1.96074561790627
PRIMCOORD
 1 1
 90     0.00000000000000     0.00000000000000     0.00000000000000
