CRYSTAL
PRIMVEC
 0.00000000000000 2.45457072569700 2.45457072569700
 2.45457072569700 0.00000000000000 2.45457072569700
 2.45457072569700 2.45457072569700 0.00000000000000
PRIMCOORD
 1 1
 90     0.00000000000000     0.00000000000000     0.00000000000000
