CRYSTAL
PRIMVEC
 3.17970364718251 0.00000000000000 0.00000000000000
 0.00000000000000 3.17970364718251 0.00000000000000
 0.00000000000000 0.00000000000000 3.17970364718251
PRIMCOORD
 1 1
 90     0.00000000000000     0.00000000000000     0.00000000000000
