CRYSTAL
PRIMVEC
 3.17970465173911 0.00000000000000 0.00000000000000
 0.00000000000000 3.17970465173911 0.00000000000000
 0.00000000000000 0.00000000000000 3.17970465173911
PRIMCOORD
 1 1
 90     0.00000000000000     0.00000000000000     0.00000000000000
