CRYSTAL
PRIMVEC
 -1.58301196349127 1.58301196349127 1.58301196349127
 1.58301196349127 -1.58301196349127 1.58301196349127
 1.58301196349127 1.58301196349127 -1.58301196349127
PRIMCOORD
 1 1
 22     0.00000000000000     0.00000000000000     0.00000000000000
