CRYSTAL
PRIMVEC
 -1.58301196288335 1.58301196288335 1.58301196288335
 1.58301196288335 -1.58301196288335 1.58301196288335
 1.58301196288335 1.58301196288335 -1.58301196288335
PRIMCOORD
 1 1
 22     0.00000000000000     0.00000000000000     0.00000000000000
