CRYSTAL
PRIMVEC
 0.00000000000000 2.00135331756717 2.00135331756717
 2.00135331756717 0.00000000000000 2.00135331756717
 2.00135331756717 2.00135331756717 0.00000000000000
PRIMCOORD
 1 1
 22     0.00000000000000     0.00000000000000     0.00000000000000
