CRYSTAL
PRIMVEC
 0.00000000000000 2.00135331662475 2.00135331662475
 2.00135331662475 0.00000000000000 2.00135331662475
 2.00135331662475 2.00135331662475 0.00000000000000
PRIMCOORD
 1 1
 22     0.00000000000000     0.00000000000000     0.00000000000000
