CRYSTAL
PRIMVEC
 2.55271070201954 0.00000000000000 0.00000000000000
 0.00000000000000 2.55271070201954 0.00000000000000
 0.00000000000000 0.00000000000000 2.55271070201954
PRIMCOORD
 1 1
 22     0.00000000000000     0.00000000000000     0.00000000000000
