CRYSTAL
PRIMVEC
 2.55271071489949 0.00000000000000 0.00000000000000
 0.00000000000000 2.55271071489949 0.00000000000000
 0.00000000000000 0.00000000000000 2.55271071489949
PRIMCOORD
 1 1
 22     0.00000000000000     0.00000000000000     0.00000000000000
