CRYSTAL
PRIMVEC
 -1.89651636482215 1.89651636482215 1.89651636482215
 1.89651636482215 -1.89651636482215 1.89651636482215
 1.89651636482215 1.89651636482215 -1.89651636482215
PRIMCOORD
 1 1
 81     0.00000000000000     0.00000000000000     0.00000000000000
