CRYSTAL
PRIMVEC
 -1.89651632669916 1.89651632669916 1.89651632669916
 1.89651632669916 -1.89651632669916 1.89651632669916
 1.89651632669916 1.89651632669916 -1.89651632669916
PRIMCOORD
 1 1
 81     0.00000000000000     0.00000000000000     0.00000000000000
