CRYSTAL
PRIMVEC
 0.00000000000000 2.38303901194067 2.38303901194067
 2.38303901194067 0.00000000000000 2.38303901194067
 2.38303901194067 2.38303901194067 0.00000000000000
PRIMCOORD
 1 1
 81     0.00000000000000     0.00000000000000     0.00000000000000
