CRYSTAL
PRIMVEC
 3.09013699883951 0.00000000000000 0.00000000000000
 0.00000000000000 3.09013699883951 0.00000000000000
 0.00000000000000 0.00000000000000 3.09013699883951
PRIMCOORD
 1 1
 81     0.00000000000000     0.00000000000000     0.00000000000000
