CRYSTAL
PRIMVEC
 3.09013697406160 0.00000000000000 0.00000000000000
 0.00000000000000 3.09013697406160 0.00000000000000
 0.00000000000000 0.00000000000000 3.09013697406160
PRIMCOORD
 1 1
 81     0.00000000000000     0.00000000000000     0.00000000000000
