CRYSTAL
PRIMVEC
 -1.92395664136276 1.92395664136276 1.92395664136276
 1.92395664136276 -1.92395664136276 1.92395664136276
 1.92395664136276 1.92395664136276 -1.92395664136276
PRIMCOORD
 1 1
 69     0.00000000000000     0.00000000000000     0.00000000000000
