CRYSTAL
PRIMVEC
 -1.92395664267533 1.92395664267533 1.92395664267533
 1.92395664267533 -1.92395664267533 1.92395664267533
 1.92395664267533 1.92395664267533 -1.92395664267533
PRIMCOORD
 1 1
 69     0.00000000000000     0.00000000000000     0.00000000000000
