CRYSTAL
PRIMVEC
 0.00000000000000 2.43118586976184 2.43118586976184
 2.43118586976184 0.00000000000000 2.43118586976184
 2.43118586976184 2.43118586976184 0.00000000000000
PRIMCOORD
 1 1
 69     0.00000000000000     0.00000000000000     0.00000000000000
