CRYSTAL
PRIMVEC
 3.07772867077635 0.00000000000000 0.00000000000000
 0.00000000000000 3.07772867077635 0.00000000000000
 0.00000000000000 0.00000000000000 3.07772867077635
PRIMCOORD
 1 1
 69     0.00000000000000     0.00000000000000     0.00000000000000
