CRYSTAL
PRIMVEC
 -1.67596092948177 1.67596092948177 1.67596092948177
 1.67596092948177 -1.67596092948177 1.67596092948177
 1.67596092948177 1.67596092948177 -1.67596092948177
PRIMCOORD
 1 1
 92     0.00000000000000     0.00000000000000     0.00000000000000
