CRYSTAL
PRIMVEC
 -1.67596090152742 1.67596090152742 1.67596090152742
 1.67596090152742 -1.67596090152742 1.67596090152742
 1.67596090152742 1.67596090152742 -1.67596090152742
PRIMCOORD
 1 1
 92     0.00000000000000     0.00000000000000     0.00000000000000
