CRYSTAL
PRIMVEC
 0.00000000000000 2.86891999850180 2.86891999850180
 2.86891999850180 0.00000000000000 2.86891999850180
 2.86891999850180 2.86891999850180 0.00000000000000
PRIMCOORD
 2 1
 92     0.00000000000000     0.00000000000000     0.00000000000000
 92     1.43445999925090     1.43445999925090     1.43445999925090
