CRYSTAL
PRIMVEC
 0.00000000000000 2.15868621531435 2.15868621531435
 2.15868621531435 0.00000000000000 2.15868621531435
 2.15868621531435 2.15868621531435 0.00000000000000
PRIMCOORD
 1 1
 92     0.00000000000000     0.00000000000000     0.00000000000000
