CRYSTAL
PRIMVEC
 0.00000000000000 2.15868617208184 2.15868617208184
 2.15868617208184 0.00000000000000 2.15868617208184
 2.15868617208184 2.15868617208184 0.00000000000000
PRIMCOORD
 1 1
 92     0.00000000000000     0.00000000000000     0.00000000000000
