CRYSTAL
PRIMVEC
 2.62054916574025 0.00000000000000 0.00000000000000
 0.00000000000000 2.62054916574025 0.00000000000000
 0.00000000000000 0.00000000000000 2.62054916574025
PRIMCOORD
 1 1
 92     0.00000000000000     0.00000000000000     0.00000000000000
