CRYSTAL
PRIMVEC
 2.62054929986753 0.00000000000000 0.00000000000000
 0.00000000000000 2.62054929986753 0.00000000000000
 0.00000000000000 0.00000000000000 2.62054929986753
PRIMCOORD
 1 1
 92     0.00000000000000     0.00000000000000     0.00000000000000
