CRYSTAL
PRIMVEC
 -1.46326698671960 1.46326698671960 1.46326698671960
 1.46326698671960 -1.46326698671960 1.46326698671960
 1.46326698671960 1.46326698671960 -1.46326698671960
PRIMCOORD
 1 1
 23     0.00000000000000     0.00000000000000     0.00000000000000
