CRYSTAL
PRIMVEC
 0.00000000000000 1.86484376326544 1.86484376326544
 1.86484376326544 0.00000000000000 1.86484376326544
 1.86484376326544 1.86484376326544 0.00000000000000
PRIMCOORD
 1 1
 23     0.00000000000000     0.00000000000000     0.00000000000000
