CRYSTAL
PRIMVEC
 0.00000000000000 1.86484376489276 1.86484376489276
 1.86484376489276 0.00000000000000 1.86484376489276
 1.86484376489276 1.86484376489276 0.00000000000000
PRIMCOORD
 1 1
 23     0.00000000000000     0.00000000000000     0.00000000000000
