CRYSTAL
PRIMVEC
 2.38246877774217 0.00000000000000 0.00000000000000
 0.00000000000000 2.38246877774217 0.00000000000000
 0.00000000000000 0.00000000000000 2.38246877774217
PRIMCOORD
 1 1
 23     0.00000000000000     0.00000000000000     0.00000000000000
