CRYSTAL
PRIMVEC
 -1.56781249260193 1.56781249260193 1.56781249260193
 1.56781249260193 -1.56781249260193 1.56781249260193
 1.56781249260193 1.56781249260193 -1.56781249260193
PRIMCOORD
 1 1
 74     0.00000000000000     0.00000000000000     0.00000000000000
