CRYSTAL
PRIMVEC
 0.00000000000000 1.98648646488023 1.98648646488023
 1.98648646488023 0.00000000000000 1.98648646488023
 1.98648646488023 1.98648646488023 0.00000000000000
PRIMCOORD
 1 1
 74     0.00000000000000     0.00000000000000     0.00000000000000
