CRYSTAL
PRIMVEC
 2.59250004050912 0.00000000000000 0.00000000000000
 0.00000000000000 2.59250004050912 0.00000000000000
 0.00000000000000 0.00000000000000 2.59250004050912
PRIMCOORD
 1 1
 74     0.00000000000000     0.00000000000000     0.00000000000000
