CRYSTAL
PRIMVEC
 2.59250011734848 0.00000000000000 0.00000000000000
 0.00000000000000 2.59250011734848 0.00000000000000
 0.00000000000000 0.00000000000000 2.59250011734848
PRIMCOORD
 1 1
 74     0.00000000000000     0.00000000000000     0.00000000000000
