CRYSTAL
PRIMVEC
 -2.34064417417674 2.34064417417674 2.34064417417674
 2.34064417417674 -2.34064417417674 2.34064417417674
 2.34064417417674 2.34064417417674 -2.34064417417674
PRIMCOORD
 1 1
 54     0.00000000000000     0.00000000000000     0.00000000000000
