CRYSTAL
PRIMVEC
 -2.34064417523491 2.34064417523491 2.34064417523491
 2.34064417523491 -2.34064417523491 2.34064417523491
 2.34064417523491 2.34064417523491 -2.34064417523491
PRIMCOORD
 1 1
 54     0.00000000000000     0.00000000000000     0.00000000000000
