CRYSTAL
PRIMVEC
 0.00000000000000 2.92551942333033 2.92551942333033
 2.92551942333033 0.00000000000000 2.92551942333033
 2.92551942333033 2.92551942333033 0.00000000000000
PRIMCOORD
 1 1
 54     0.00000000000000     0.00000000000000     0.00000000000000
