CRYSTAL
PRIMVEC
 4.05504983334920 0.00000000000000 0.00000000000000
 0.00000000000000 4.05504983334920 0.00000000000000
 0.00000000000000 0.00000000000000 4.05504983334920
PRIMCOORD
 1 1
 54     0.00000000000000     0.00000000000000     0.00000000000000
