CRYSTAL
PRIMVEC
 4.05504983840636 0.00000000000000 0.00000000000000
 0.00000000000000 4.05504983840636 0.00000000000000
 0.00000000000000 0.00000000000000 4.05504983840636
PRIMCOORD
 1 1
 54     0.00000000000000     0.00000000000000     0.00000000000000
