CRYSTAL
PRIMVEC
 -1.95578996156376 1.95578996156376 1.95578996156376
 1.95578996156376 -1.95578996156376 1.95578996156376
 1.95578996156376 1.95578996156376 -1.95578996156376
PRIMCOORD
 1 1
 39     0.00000000000000     0.00000000000000     0.00000000000000
