CRYSTAL
PRIMVEC
 -1.95578996150165 1.95578996150165 1.95578996150165
 1.95578996150165 -1.95578996150165 1.95578996150165
 1.95578996150165 1.95578996150165 -1.95578996150165
PRIMCOORD
 1 1
 39     0.00000000000000     0.00000000000000     0.00000000000000
