CRYSTAL
PRIMVEC
 0.00000000000000 2.45127663802866 2.45127663802866
 2.45127663802866 0.00000000000000 2.45127663802866
 2.45127663802866 2.45127663802866 0.00000000000000
PRIMCOORD
 1 1
 39     0.00000000000000     0.00000000000000     0.00000000000000
