CRYSTAL
PRIMVEC
 3.13265625936376 0.00000000000000 0.00000000000000
 0.00000000000000 3.13265625936376 0.00000000000000
 0.00000000000000 0.00000000000000 3.13265625936376
PRIMCOORD
 1 1
 39     0.00000000000000     0.00000000000000     0.00000000000000
