CRYSTAL
PRIMVEC
 3.13265626473342 0.00000000000000 0.00000000000000
 0.00000000000000 3.13265626473342 0.00000000000000
 0.00000000000000 0.00000000000000 3.13265626473342
PRIMCOORD
 1 1
 39     0.00000000000000     0.00000000000000     0.00000000000000
