CRYSTAL
PRIMVEC
 -1.93996036183885 1.93996036183885 1.93996036183885
 1.93996036183885 -1.93996036183885 1.93996036183885
 1.93996036183885 1.93996036183885 -1.93996036183885
PRIMCOORD
 1 1
 70     0.00000000000000     0.00000000000000     0.00000000000000
