CRYSTAL
PRIMVEC
 -1.93996036024491 1.93996036024491 1.93996036024491
 1.93996036024491 -1.93996036024491 1.93996036024491
 1.93996036024491 1.93996036024491 -1.93996036024491
PRIMCOORD
 1 1
 70     0.00000000000000     0.00000000000000     0.00000000000000
