CRYSTAL
PRIMVEC
 0.00000000000000 2.45741176807559 2.45741176807559
 2.45741176807559 0.00000000000000 2.45741176807559
 2.45741176807559 2.45741176807559 0.00000000000000
PRIMCOORD
 1 1
 70     0.00000000000000     0.00000000000000     0.00000000000000
