CRYSTAL
PRIMVEC
 3.12509725459976 0.00000000000000 0.00000000000000
 0.00000000000000 3.12509725459976 0.00000000000000
 0.00000000000000 0.00000000000000 3.12509725459976
PRIMCOORD
 1 1
 70     0.00000000000000     0.00000000000000     0.00000000000000
