CRYSTAL
PRIMVEC
 3.12509726213983 0.00000000000000 0.00000000000000
 0.00000000000000 3.12509726213983 0.00000000000000
 0.00000000000000 0.00000000000000 3.12509726213983
PRIMCOORD
 1 1
 70     0.00000000000000     0.00000000000000     0.00000000000000
