CRYSTAL
PRIMVEC
 -1.50680658826823 1.50680658826823 1.50680658826823
 1.50680658826823 -1.50680658826823 1.50680658826823
 1.50680658826823 1.50680658826823 -1.50680658826823
PRIMCOORD
 1 1
 30     0.00000000000000     0.00000000000000     0.00000000000000
