CRYSTAL
PRIMVEC
 -1.50680658836069 1.50680658836069 1.50680658836069
 1.50680658836069 -1.50680658836069 1.50680658836069
 1.50680658836069 1.50680658836069 -1.50680658836069
PRIMCOORD
 1 1
 30     0.00000000000000     0.00000000000000     0.00000000000000
