CRYSTAL
PRIMVEC
 0.00000000000000 1.89128765934651 1.89128765934651
 1.89128765934651 0.00000000000000 1.89128765934651
 1.89128765934651 1.89128765934651 0.00000000000000
PRIMCOORD
 1 1
 30     0.00000000000000     0.00000000000000     0.00000000000000
