CRYSTAL
PRIMVEC
 0.00000000000000 1.89128762981006 1.89128762981006
 1.89128762981006 0.00000000000000 1.89128762981006
 1.89128762981006 1.89128762981006 0.00000000000000
PRIMCOORD
 1 1
 30     0.00000000000000     0.00000000000000     0.00000000000000
