CRYSTAL
PRIMVEC
 2.52342140271142 0.00000000000000 0.00000000000000
 0.00000000000000 2.52342140271142 0.00000000000000
 0.00000000000000 0.00000000000000 2.52342140271142
PRIMCOORD
 1 1
 30     0.00000000000000     0.00000000000000     0.00000000000000
