CRYSTAL
PRIMVEC
 -1.74109718563975 1.74109718563975 1.74109718563975
 1.74109718563975 -1.74109718563975 1.74109718563975
 1.74109718563975 1.74109718563975 -1.74109718563975
PRIMCOORD
 1 1
 40     0.00000000000000     0.00000000000000     0.00000000000000
