CRYSTAL
PRIMVEC
 2.83376908811580 0.00000000000000 0.00000000000000
 0.00000000000000 2.83376908811580 0.00000000000000
 0.00000000000000 0.00000000000000 2.83376908811580
PRIMCOORD
 1 1
 40     0.00000000000000     0.00000000000000     0.00000000000000
