CRYSTAL
PRIMVEC
 2.83376903666689 0.00000000000000 0.00000000000000
 0.00000000000000 2.83376903666689 0.00000000000000
 0.00000000000000 0.00000000000000 2.83376903666689
PRIMCOORD
 1 1
 40     0.00000000000000     0.00000000000000     0.00000000000000
