CRYSTAL
# Primitive lattice vectors in Angstrom
PRIMVEC
 4.15920712125192 0.00000000000000 0.00000000000000
 -0.00000000000000 4.15920712125192 0.00000000000000
 0.00000000000000 0.00000000000000 4.15920712125192
# Cartesian coordinates in Angstrom.
PRIMCOORD
 4 1
Cs     0.00000000000000     0.00000000000000     0.00000000000000
O     2.07960356062596     0.00000000000000     0.00000000000000
O     0.00000000000000     2.07960356062596     0.00000000000000
O     0.00000000000000     0.00000000000000     2.07960356062596