CRYSTAL
# Primitive lattice vectors in Angstrom
PRIMVEC
 4.12896976688004 0.00000000000000 0.00000000000000
 -0.00000000000000 4.12896976688004 0.00000000000000
 0.00000000000000 0.00000000000000 4.12896976688004
# Cartesian coordinates in Angstrom.
PRIMCOORD
 4 1
Zr     0.00000000000000     0.00000000000000     0.00000000000000
O     2.06448488344002     0.00000000000000     0.00000000000000
O     0.00000000000000     2.06448488344002     0.00000000000000
O     0.00000000000000     0.00000000000000     2.06448488344002