CRYSTAL
PRIMVEC
 -2.25728879072253 2.25728879072253 2.25728879072253
 2.25728879072253 -2.25728879072253 2.25728879072253
 2.25728879072253 2.25728879072253 -2.25728879072253
PRIMCOORD
 1 1
 89     0.00000000000000     0.00000000000000     0.00000000000000
