CRYSTAL
PRIMVEC
 0.00000000000000 3.02337334851988 3.02337334851988
 3.02337334851988 0.00000000000000 3.02337334851988
 3.02337334851988 3.02337334851988 0.00000000000000
PRIMCOORD
 2 1
 97     0.00000000000000     0.00000000000000     0.00000000000000
 97     1.51168667425994     1.51168667425994     1.51168667425994
