CRYSTAL
PRIMVEC
 0.00000000000000 3.11911772390556 3.11911772390556
 3.11911772390556 0.00000000000000 3.11911772390556
 3.11911772390556 3.11911772390556 0.00000000000000
PRIMCOORD
 2 1
 58     0.00000000000000     0.00000000000000     0.00000000000000
 58     1.55955886195278     1.55955886195278     1.55955886195278
