CRYSTAL
PRIMVEC
 0.00000000000000 2.96130147296416 2.96130147296416
 2.96130147296416 0.00000000000000 2.96130147296416
 2.96130147296416 2.96130147296416 0.00000000000000
PRIMCOORD
 2 1
 98     0.00000000000000     0.00000000000000     0.00000000000000
 98     1.48065073648208     1.48065073648208     1.48065073648208
