CRYSTAL
PRIMVEC
 0.00000000000000 2.32006267171167 2.32006267171167
 2.32006267171167 0.00000000000000 2.32006267171167
 2.32006267171167 2.32006267171167 0.00000000000000
PRIMCOORD
 1 1
 98     0.00000000000000     0.00000000000000     0.00000000000000
