CRYSTAL
PRIMVEC
 -1.99888396067729 1.99888396067729 1.99888396067729
 1.99888396067729 -1.99888396067729 1.99888396067729
 1.99888396067729 1.99888396067729 -1.99888396067729
PRIMCOORD
 1 1
 66     0.00000000000000     0.00000000000000     0.00000000000000
