CRYSTAL
PRIMVEC
 0.00000000000000 3.10599084308427 3.10599084308427
 3.10599084308427 0.00000000000000 3.10599084308427
 3.10599084308427 3.10599084308427 0.00000000000000
PRIMCOORD
 2 1
 66     0.00000000000000     0.00000000000000     0.00000000000000
 66     1.55299542154213     1.55299542154213     1.55299542154213
