CRYSTAL
PRIMVEC
 0.00000000000000 2.54557530773696 2.54557530773696
 2.54557530773696 0.00000000000000 2.54557530773696
 2.54557530773696 2.54557530773696 0.00000000000000
PRIMCOORD
 1 1
 66     0.00000000000000     0.00000000000000     0.00000000000000
