CRYSTAL
PRIMVEC
 3.21601896033061 0.00000000000000 0.00000000000000
 0.00000000000000 3.21601896033061 0.00000000000000
 0.00000000000000 0.00000000000000 3.21601896033061
PRIMCOORD
 1 1
 66     0.00000000000000     0.00000000000000     0.00000000000000
