CRYSTAL
PRIMVEC
 -2.03058065362002 2.03058065362002 2.03058065362002
 2.03058065362002 -2.03058065362002 2.03058065362002
 2.03058065362002 2.03058065362002 -2.03058065362002
PRIMCOORD
 1 1
 68     0.00000000000000     0.00000000000000     0.00000000000000
