CRYSTAL
PRIMVEC
 0.00000000000000 4.26758664108575 4.26758664108575
 4.26758664108575 0.00000000000000 4.26758664108575
 4.26758664108575 4.26758664108575 0.00000000000000
PRIMCOORD
 2 1
 68     0.00000000000000     0.00000000000000     0.00000000000000
 68     2.13379332054287     2.13379332054287     2.13379332054287
