CRYSTAL
PRIMVEC
 3.34097369629813 0.00000000000000 0.00000000000000
 0.00000000000000 3.34097369629813 0.00000000000000
 0.00000000000000 0.00000000000000 3.34097369629813
PRIMCOORD
 1 1
 68     0.00000000000000     0.00000000000000     0.00000000000000
