CRYSTAL
PRIMVEC
 -2.01449469809013 2.01449469809013 2.01449469809013
 2.01449469809013 -2.01449469809013 2.01449469809013
 2.01449469809013 2.01449469809013 -2.01449469809013
PRIMCOORD
 1 1
 99     0.00000000000000     0.00000000000000     0.00000000000000
