CRYSTAL
PRIMVEC
 0.00000000000000 3.02385627139681 3.02385627139681
 3.02385627139681 0.00000000000000 3.02385627139681
 3.02385627139681 3.02385627139681 0.00000000000000
PRIMCOORD
 2 1
 99     0.00000000000000     0.00000000000000     0.00000000000000
 99     1.51192813569841     1.51192813569841     1.51192813569841
