CRYSTAL
PRIMVEC
 0.00000000000000 2.45166345452462 2.45166345452462
 2.45166345452462 0.00000000000000 2.45166345452462
 2.45166345452462 2.45166345452462 0.00000000000000
PRIMCOORD
 1 1
 99     0.00000000000000     0.00000000000000     0.00000000000000
