CRYSTAL
PRIMVEC
 -2.02953866905987 2.02953866905987 2.02953866905987
 2.02953866905987 -2.02953866905987 2.02953866905987
 2.02953866905987 2.02953866905987 -2.02953866905987
PRIMCOORD
 1 1
 100     0.00000000000000     0.00000000000000     0.00000000000000
