CRYSTAL
PRIMVEC
 0.00000000000000 2.51803149999403 2.51803149999403
 2.51803149999403 0.00000000000000 2.51803149999403
 2.51803149999403 2.51803149999403 0.00000000000000
PRIMCOORD
 1 1
 100     0.00000000000000     0.00000000000000     0.00000000000000
