CRYSTAL
PRIMVEC
 3.23255281640700 0.00000000000000 0.00000000000000
 0.00000000000000 3.23255281640700 0.00000000000000
 0.00000000000000 0.00000000000000 3.23255281640700
PRIMCOORD
 1 1
 100     0.00000000000000     0.00000000000000     0.00000000000000
