CRYSTAL
PRIMVEC
 -2.02559297779272 2.02559297779272 2.02559297779272
 2.02559297779272 -2.02559297779272 2.02559297779272
 2.02559297779272 2.02559297779272 -2.02559297779272
PRIMCOORD
 1 1
 64     0.00000000000000     0.00000000000000     0.00000000000000
