CRYSTAL
PRIMVEC
 0.00000000000000 2.54628730502529 2.54628730502529
 2.54628730502529 0.00000000000000 2.54628730502529
 2.54628730502529 2.54628730502529 0.00000000000000
PRIMCOORD
 1 1
 64     0.00000000000000     0.00000000000000     0.00000000000000
