CRYSTAL
PRIMVEC
 -2.01235785938477 2.01235785938477 2.01235785938477
 2.01235785938477 -2.01235785938477 2.01235785938477
 2.01235785938477 2.01235785938477 -2.01235785938477
PRIMCOORD
 1 1
 67     0.00000000000000     0.00000000000000     0.00000000000000
