CRYSTAL
PRIMVEC
 0.00000000000000 2.53161842424744 2.53161842424744
 2.53161842424744 0.00000000000000 2.53161842424744
 2.53161842424744 2.53161842424744 0.00000000000000
PRIMCOORD
 1 1
 67     0.00000000000000     0.00000000000000     0.00000000000000
