CRYSTAL
PRIMVEC
 3.33370718029219 0.00000000000000 0.00000000000000
 0.00000000000000 3.33370718029219 0.00000000000000
 0.00000000000000 0.00000000000000 3.33370718029219
PRIMCOORD
 1 1
 67     0.00000000000000     0.00000000000000     0.00000000000000
