CRYSTAL
PRIMVEC
 -2.11568117749396 2.11568117749396 2.11568117749396
 2.11568117749396 -2.11568117749396 2.11568117749396
 2.11568117749396 2.11568117749396 -2.11568117749396
PRIMCOORD
 1 1
 57     0.00000000000000     0.00000000000000     0.00000000000000
