CRYSTAL
PRIMVEC
 -2.09415266778347 2.09415266778347 2.09415266778347
 2.09415266778347 -2.09415266778347 2.09415266778347
 2.09415266778347 2.09415266778347 -2.09415266778347
PRIMCOORD
 1 1
 101     0.00000000000000     0.00000000000000     0.00000000000000
