CRYSTAL
PRIMVEC
 0.00000000000000 4.41164554499938 4.41164554499938
 4.41164554499938 0.00000000000000 4.41164554499938
 4.41164554499938 4.41164554499938 0.00000000000000
PRIMCOORD
 2 1
 101     0.00000000000000     0.00000000000000     0.00000000000000
 101     2.20582277249969     2.20582277249969     2.20582277249969
