CRYSTAL
PRIMVEC
 3.51591042140313 0.00000000000000 0.00000000000000
 0.00000000000000 3.51591042140313 0.00000000000000
 0.00000000000000 0.00000000000000 3.51591042140313
PRIMCOORD
 1 1
 101     0.00000000000000     0.00000000000000     0.00000000000000
