CRYSTAL
PRIMVEC
 0.00000000000000 3.04095700046790 3.04095700046790
 3.04095700046790 0.00000000000000 3.04095700046790
 3.04095700046790 3.04095700046790 0.00000000000000
PRIMCOORD
 2 1
 60     0.00000000000000     0.00000000000000     0.00000000000000
 60     1.52047850023395     1.52047850023395     1.52047850023395
