CRYSTAL
PRIMVEC
 0.00000000000000 2.19382012232463 2.19382012232463
 2.19382012232463 0.00000000000000 2.19382012232463
 2.19382012232463 2.19382012232463 0.00000000000000
PRIMCOORD
 1 1
 93     0.00000000000000     0.00000000000000     0.00000000000000
