CRYSTAL
PRIMVEC
 0.00000000000000 3.11333812367404 3.11333812367404
 3.11333812367404 0.00000000000000 3.11333812367404
 3.11333812367404 3.11333812367404 0.00000000000000
PRIMCOORD
 2 1
 61     0.00000000000000     0.00000000000000     0.00000000000000
 61     1.55666906183702     1.55666906183702     1.55666906183702
