CRYSTAL
PRIMVEC
 -1.94516509856070 1.94516509856070 1.94516509856070
 1.94516509856070 -1.94516509856070 1.94516509856070
 1.94516509856070 1.94516509856070 -1.94516509856070
PRIMCOORD
 1 1
 59     0.00000000000000     0.00000000000000     0.00000000000000
