CRYSTAL
PRIMVEC
 0.00000000000000 3.02757738582158 3.02757738582158
 3.02757738582158 0.00000000000000 3.02757738582158
 3.02757738582158 3.02757738582158 0.00000000000000
PRIMCOORD
 2 1
 59     0.00000000000000     0.00000000000000     0.00000000000000
 59     1.51378869291079     1.51378869291079     1.51378869291079
