CRYSTAL
PRIMVEC
 0.00000000000000 2.43457390714735 2.43457390714735
 2.43457390714735 0.00000000000000 2.43457390714735
 2.43457390714735 2.43457390714735 0.00000000000000
PRIMCOORD
 1 1
 59     0.00000000000000     0.00000000000000     0.00000000000000
