CRYSTAL
PRIMVEC
 -2.01482791971732 2.01482791971732 2.01482791971732
 2.01482791971732 -2.01482791971732 2.01482791971732
 2.01482791971732 2.01482791971732 -2.01482791971732
PRIMCOORD
 1 1
 65     0.00000000000000     0.00000000000000     0.00000000000000
