CRYSTAL
PRIMVEC
 0.00000000000000 3.06379543141083 3.06379543141083
 3.06379543141083 0.00000000000000 3.06379543141083
 3.06379543141083 3.06379543141083 0.00000000000000
PRIMCOORD
 2 1
 65     0.00000000000000     0.00000000000000     0.00000000000000
 65     1.53189771570542     1.53189771570542     1.53189771570542
