CRYSTAL
PRIMVEC
 0.00000000000000 2.51810877880550 2.51810877880550
 2.51810877880550 0.00000000000000 2.51810877880550
 2.51810877880550 2.51810877880550 0.00000000000000
PRIMCOORD
 1 1
 65     0.00000000000000     0.00000000000000     0.00000000000000
