CRYSTAL
PRIMVEC
 3.22458697112224 0.00000000000000 0.00000000000000
 0.00000000000000 3.22458697112224 0.00000000000000
 0.00000000000000 0.00000000000000 3.22458697112224
PRIMCOORD
 1 1
 65     0.00000000000000     0.00000000000000     0.00000000000000
