CRYSTAL
PRIMVEC
 -2.04629411774585 2.04629411774585 2.04629411774585
 2.04629411774585 -2.04629411774585 2.04629411774585
 2.04629411774585 2.04629411774585 -2.04629411774585
PRIMCOORD
 1 1
 69     0.00000000000000     0.00000000000000     0.00000000000000
