CRYSTAL
PRIMVEC
 0.00000000000000 4.33553791504756 4.33553791504756
 4.33553791504756 0.00000000000000 4.33553791504756
 4.33553791504756 4.33553791504756 0.00000000000000
PRIMCOORD
 2 1
 69     0.00000000000000     0.00000000000000     0.00000000000000
 69     2.16776895752378     2.16776895752378     2.16776895752378
