CRYSTAL
PRIMVEC
 0.00000000000000 2.60034536832251 2.60034536832251
 2.60034536832251 0.00000000000000 2.60034536832251
 2.60034536832251 2.60034536832251 0.00000000000000
PRIMCOORD
 1 1
 69     0.00000000000000     0.00000000000000     0.00000000000000
