CRYSTAL
PRIMVEC
 3.34580658936892 0.00000000000000 0.00000000000000
 0.00000000000000 3.34580658936892 0.00000000000000
 0.00000000000000 0.00000000000000 3.34580658936892
PRIMCOORD
 1 1
 69     0.00000000000000     0.00000000000000     0.00000000000000
