CRYSTAL
PRIMVEC
 0.00000000000000 2.21926300509596 2.21926300509596
 2.21926300509596 0.00000000000000 2.21926300509596
 2.21926300509596 2.21926300509596 0.00000000000000
PRIMCOORD
 1 1
 92     0.00000000000000     0.00000000000000     0.00000000000000
