CRYSTAL
PRIMVEC
 0.00000000000000 2.07387574452889 2.07387574452889
 2.07387574452889 0.00000000000000 2.07387574452889
 2.07387574452889 2.07387574452889 0.00000000000000
PRIMCOORD
 1 1
 47     0.00000000000000     0.00000000000000     0.00000000000000
