CRYSTAL
PRIMVEC
 0.00000000000000 2.02021103267250 2.02021103267250
 2.02021103267250 0.00000000000000 2.02021103267250
 2.02021103267250 2.02021103267250 0.00000000000000
PRIMCOORD
 1 1
 13     0.00000000000000     0.00000000000000     0.00000000000000
