CRYSTAL
PRIMVEC
 -1.59427044146877 1.59427044146877 1.59427044146877
 1.59427044146877 -1.59427044146877 1.59427044146877
 1.59427044146877 1.59427044146877 -1.59427044146877
PRIMCOORD
 1 1
 95     0.00000000000000     0.00000000000000     0.00000000000000
