CRYSTAL
PRIMVEC
 2.73036075872100 0.00000000000000 0.00000000000000
 0.00000000000000 2.73036075872100 0.00000000000000
 0.00000000000000 0.00000000000000 2.73036075872100
PRIMCOORD
 1 1
 33     0.00000000000000     0.00000000000000     0.00000000000000
