CRYSTAL
PRIMVEC
 0.00000000000000 2.07867170840981 2.07867170840981
 2.07867170840981 0.00000000000000 2.07867170840981
 2.07867170840981 2.07867170840981 0.00000000000000
PRIMCOORD
 1 1
 79     0.00000000000000     0.00000000000000     0.00000000000000
