CRYSTAL
PRIMVEC
 -1.25014231330791 1.25014231330791 1.25014231330791
 1.25014231330791 -1.25014231330791 1.25014231330791
 1.25014231330791 1.25014231330791 -1.25014231330791
PRIMCOORD
 1 1
  4     0.00000000000000     0.00000000000000     0.00000000000000
