CRYSTAL
PRIMVEC
 0.00000000000000 2.36363836107384 2.36363836107384
 2.36363836107384 0.00000000000000 2.36363836107384
 2.36363836107384 2.36363836107384 0.00000000000000
PRIMCOORD
 1 1
 35     0.00000000000000     0.00000000000000     0.00000000000000
