CRYSTAL
PRIMVEC
 0.00000000000000 1.54073911890732 1.54073911890732
 1.54073911890732 0.00000000000000 1.54073911890732
 1.54073911890732 1.54073911890732 0.00000000000000
PRIMCOORD
 1 1
  6     0.00000000000000     0.00000000000000     0.00000000000000
