CRYSTAL
PRIMVEC
 2.99678733166209 0.00000000000000 0.00000000000000
 0.00000000000000 2.99678733166209 0.00000000000000
 0.00000000000000 0.00000000000000 2.99678733166209
PRIMCOORD
 1 1
 48     0.00000000000000     0.00000000000000     0.00000000000000
