CRYSTAL
PRIMVEC
 -1.38154615099257 1.38154615099257 1.38154615099257
 1.38154615099257 -1.38154615099257 1.38154615099257
 1.38154615099257 1.38154615099257 -1.38154615099257
PRIMCOORD
 1 1
 27     0.00000000000000     0.00000000000000     0.00000000000000
