CRYSTAL
PRIMVEC
 -1.42421486796982 1.42421486796982 1.42421486796982
 1.42421486796982 -1.42421486796982 1.42421486796982
 1.42421486796982 1.42421486796982 -1.42421486796982
PRIMCOORD
 1 1
 24     0.00000000000000     0.00000000000000     0.00000000000000
