CRYSTAL
PRIMVEC
 0.00000000000000 1.81174058579514 1.81174058579514
 1.81174058579514 0.00000000000000 1.81174058579514
 1.81174058579514 1.81174058579514 0.00000000000000
PRIMCOORD
 1 1
 24     0.00000000000000     0.00000000000000     0.00000000000000
