CRYSTAL
PRIMVEC
 2.33923003306473 0.00000000000000 0.00000000000000
 0.00000000000000 2.33923003306473 0.00000000000000
 0.00000000000000 0.00000000000000 2.33923003306473
PRIMCOORD
 1 1
 24     0.00000000000000     0.00000000000000     0.00000000000000
