CRYSTAL
PRIMVEC
 -1.44245840700416 1.44245840700416 1.44245840700416
 1.44245840700416 -1.44245840700416 1.44245840700416
 1.44245840700416 1.44245840700416 -1.44245840700416
PRIMCOORD
 1 1
 29     0.00000000000000     0.00000000000000     0.00000000000000
