CRYSTAL
PRIMVEC
 0.00000000000000 2.53216002012846 2.53216002012846
 2.53216002012846 0.00000000000000 2.53216002012846
 2.53216002012846 2.53216002012846 0.00000000000000
PRIMCOORD
 1 1
 66     0.00000000000000     0.00000000000000     0.00000000000000
