CRYSTAL
PRIMVEC
 0.00000000000000 2.32001052058881 2.32001052058881
 2.32001052058881 0.00000000000000 2.32001052058881
 2.32001052058881 2.32001052058881 0.00000000000000
PRIMCOORD
 1 1
 63     0.00000000000000     0.00000000000000     0.00000000000000
