CRYSTAL
PRIMVEC
 -1.37974341679013 1.37974341679013 1.37974341679013
 1.37974341679013 -1.37974341679013 1.37974341679013
 1.37974341679013 1.37974341679013 -1.37974341679013
PRIMCOORD
 1 1
 26     0.00000000000000     0.00000000000000     0.00000000000000
