CRYSTAL
PRIMVEC
 0.00000000000000 3.88424421831256 3.88424421831256
 3.88424421831256 0.00000000000000 3.88424421831256
 3.88424421831256 3.88424421831256 0.00000000000000
PRIMCOORD
 1 1
 87     0.00000000000000     0.00000000000000     0.00000000000000
