CRYSTAL
PRIMVEC
 -1.68874000201678 1.68874000201678 1.68874000201678
 1.68874000201678 -1.68874000201678 1.68874000201678
 1.68874000201678 1.68874000201678 -1.68874000201678
PRIMCOORD
 1 1
 32     0.00000000000000     0.00000000000000     0.00000000000000
