CRYSTAL
PRIMVEC
 -1.65476593828065 1.65476593828065 1.65476593828065
 1.65476593828065 -1.65476593828065 1.65476593828065
 1.65476593828065 1.65476593828065 -1.65476593828065
PRIMCOORD
 1 1
  2     0.00000000000000     0.00000000000000     0.00000000000000
