CRYSTAL
PRIMVEC
 2.77564515906799 0.00000000000000 0.00000000000000
 0.00000000000000 2.77564515906799 0.00000000000000
 0.00000000000000 0.00000000000000 2.77564515906799
PRIMCOORD
 1 1
  2     0.00000000000000     0.00000000000000     0.00000000000000
