CRYSTAL
PRIMVEC
 -1.77318553899280 1.77318553899280 1.77318553899280
 1.77318553899280 -1.77318553899280 1.77318553899280
 1.77318553899280 1.77318553899280 -1.77318553899280
PRIMCOORD
 1 1
 72     0.00000000000000     0.00000000000000     0.00000000000000
