CRYSTAL
PRIMVEC
 -1.93713807446505 1.93713807446505 1.93713807446505
 1.93713807446505 -1.93713807446505 1.93713807446505
 1.93713807446505 1.93713807446505 -1.93713807446505
PRIMCOORD
 1 1
 80     0.00000000000000     0.00000000000000     0.00000000000000
