CRYSTAL
PRIMVEC
 3.10991501051142 0.00000000000000 0.00000000000000
 0.00000000000000 3.10991501051142 0.00000000000000
 0.00000000000000 0.00000000000000 3.10991501051142
PRIMCOORD
 1 1
 80     0.00000000000000     0.00000000000000     0.00000000000000
