CRYSTAL
PRIMVEC
 0.00000000000000 2.56840122850332 2.56840122850332
 2.56840122850332 0.00000000000000 2.56840122850332
 2.56840122850332 2.56840122850332 0.00000000000000
PRIMCOORD
 1 1
 67     0.00000000000000     0.00000000000000     0.00000000000000
