CRYSTAL
PRIMVEC
 3.24037904992048 0.00000000000000 0.00000000000000
 0.00000000000000 3.24037904992048 0.00000000000000
 0.00000000000000 0.00000000000000 3.24037904992048
PRIMCOORD
 1 1
 67     0.00000000000000     0.00000000000000     0.00000000000000
