CRYSTAL
PRIMVEC
 -1.90759760800689 1.90759760800689 1.90759760800689
 1.90759760800689 -1.90759760800689 1.90759760800689
 1.90759760800689 1.90759760800689 -1.90759760800689
PRIMCOORD
 1 1
 49     0.00000000000000     0.00000000000000     0.00000000000000
