CRYSTAL
PRIMVEC
 -1.55611048542286 1.55611048542286 1.55611048542286
 1.55611048542286 -1.55611048542286 1.55611048542286
 1.55611048542286 1.55611048542286 -1.55611048542286
PRIMCOORD
 1 1
 77     0.00000000000000     0.00000000000000     0.00000000000000
