CRYSTAL
PRIMVEC
 -2.64246232985308 2.64246232985308 2.64246232985308
 2.64246232985308 -2.64246232985308 2.64246232985308
 2.64246232985308 2.64246232985308 -2.64246232985308
PRIMCOORD
 1 1
 19     0.00000000000000     0.00000000000000     0.00000000000000
