CRYSTAL
PRIMVEC
 0.00000000000000 3.21054848034803 3.21054848034803
 3.21054848034803 0.00000000000000 3.21054848034803
 3.21054848034803 3.21054848034803 0.00000000000000
PRIMCOORD
 1 1
 36     0.00000000000000     0.00000000000000     0.00000000000000
