CRYSTAL
PRIMVEC
 -2.11440719856187 2.11440719856187 2.11440719856187
 2.11440719856187 -2.11440719856187 2.11440719856187
 2.11440719856187 2.11440719856187 -2.11440719856187
PRIMCOORD
 1 1
 57     0.00000000000000     0.00000000000000     0.00000000000000
