CRYSTAL
PRIMVEC
 2.72165908890854 0.00000000000000 0.00000000000000
 0.00000000000000 2.72165908890854 0.00000000000000
 0.00000000000000 0.00000000000000 2.72165908890854
PRIMCOORD
 1 1
 41     0.00000000000000     0.00000000000000     0.00000000000000
