CRYSTAL
PRIMVEC
 -1.73756375728017 1.73756375728017 1.73756375728017
 1.73756375728017 -1.73756375728017 1.73756375728017
 1.73756375728017 1.73756375728017 -1.73756375728017
PRIMCOORD
 1 1
 60     0.00000000000000     0.00000000000000     0.00000000000000
