CRYSTAL
PRIMVEC
 2.62883243401180 0.00000000000000 0.00000000000000
 0.00000000000000 2.62883243401180 0.00000000000000
 0.00000000000000 0.00000000000000 2.62883243401180
PRIMCOORD
 1 1
 60     0.00000000000000     0.00000000000000     0.00000000000000
