CRYSTAL
PRIMVEC
 -1.83471253817141 1.83471253817141 1.83471253817141
 1.83471253817141 -1.83471253817141 1.83471253817141
 1.83471253817141 1.83471253817141 -1.83471253817141
PRIMCOORD
 1 1
 10     0.00000000000000     0.00000000000000     0.00000000000000
