CRYSTAL
PRIMVEC
 3.09640767520741 0.00000000000000 0.00000000000000
 0.00000000000000 3.09640767520741 0.00000000000000
 0.00000000000000 0.00000000000000 3.09640767520741
PRIMCOORD
 1 1
 10     0.00000000000000     0.00000000000000     0.00000000000000
