CRYSTAL
PRIMVEC
 0.00000000000000 1.75649074849363 1.75649074849363
 1.75649074849363 0.00000000000000 1.75649074849363
 1.75649074849363 1.75649074849363 0.00000000000000
PRIMCOORD
 1 1
 28     0.00000000000000     0.00000000000000     0.00000000000000
