CRYSTAL
PRIMVEC
 2.32482549808316 0.00000000000000 0.00000000000000
 0.00000000000000 2.32482549808316 0.00000000000000
 0.00000000000000 0.00000000000000 2.32482549808316
PRIMCOORD
 1 1
 28     0.00000000000000     0.00000000000000     0.00000000000000
