CRYSTAL
PRIMVEC
 -1.64445983974075 1.64445983974075 1.64445983974075
 1.64445983974075 -1.64445983974075 1.64445983974075
 1.64445983974075 1.64445983974075 -1.64445983974075
PRIMCOORD
 1 1
 93     0.00000000000000     0.00000000000000     0.00000000000000
