CRYSTAL
PRIMVEC
 2.58397733930639 0.00000000000000 0.00000000000000
 0.00000000000000 2.58397733930639 0.00000000000000
 0.00000000000000 0.00000000000000 2.58397733930639
PRIMCOORD
 1 1
 93     0.00000000000000     0.00000000000000     0.00000000000000
