CRYSTAL
PRIMVEC
 -1.24918369697184 1.24918369697184 1.24918369697184
 1.24918369697184 -1.24918369697184 1.24918369697184
 1.24918369697184 1.24918369697184 -1.24918369697184
PRIMCOORD
 1 1
  8     0.00000000000000     0.00000000000000     0.00000000000000
