CRYSTAL
PRIMVEC
 0.00000000000000 1.58752823052011 1.58752823052011
 1.58752823052011 0.00000000000000 1.58752823052011
 1.58752823052011 1.58752823052011 0.00000000000000
PRIMCOORD
 1 1
  8     0.00000000000000     0.00000000000000     0.00000000000000
