CRYSTAL
PRIMVEC
 0.00000000000000 1.93932090114274 1.93932090114274
 1.93932090114274 0.00000000000000 1.93932090114274
 1.93932090114274 1.93932090114274 0.00000000000000
PRIMCOORD
 1 1
 15     0.00000000000000     0.00000000000000     0.00000000000000
