CRYSTAL
PRIMVEC
 3.25414893307881 0.00000000000000 0.00000000000000
 0.00000000000000 3.25414893307881 0.00000000000000
 0.00000000000000 0.00000000000000 3.25414893307881
PRIMCOORD
 1 1
 82     0.00000000000000     0.00000000000000     0.00000000000000
