CRYSTAL
PRIMVEC
 -1.56872342704198 1.56872342704198 1.56872342704198
 1.56872342704198 -1.56872342704198 1.56872342704198
 1.56872342704198 1.56872342704198 -1.56872342704198
PRIMCOORD
 1 1
 46     0.00000000000000     0.00000000000000     0.00000000000000
