CRYSTAL
PRIMVEC
 0.00000000000000 1.97108799547868 1.97108799547868
 1.97108799547868 0.00000000000000 1.97108799547868
 1.97108799547868 1.97108799547868 0.00000000000000
PRIMCOORD
 1 1
 46     0.00000000000000     0.00000000000000     0.00000000000000
