CRYSTAL
PRIMVEC
 -1.71683386136701 1.71683386136701 1.71683386136701
 1.71683386136701 -1.71683386136701 1.71683386136701
 1.71683386136701 1.71683386136701 -1.71683386136701
PRIMCOORD
 1 1
 61     0.00000000000000     0.00000000000000     0.00000000000000
