CRYSTAL
PRIMVEC
 -1.58237505266705 1.58237505266705 1.58237505266705
 1.58237505266705 -1.58237505266705 1.58237505266705
 1.58237505266705 1.58237505266705 -1.58237505266705
PRIMCOORD
 1 1
 78     0.00000000000000     0.00000000000000     0.00000000000000
