CRYSTAL
PRIMVEC
 -1.60681288847372 1.60681288847372 1.60681288847372
 1.60681288847372 -1.60681288847372 1.60681288847372
 1.60681288847372 1.60681288847372 -1.60681288847372
PRIMCOORD
 1 1
 94     0.00000000000000     0.00000000000000     0.00000000000000
