CRYSTAL
PRIMVEC
 0.00000000000000 3.29566513639981 3.29566513639981
 3.29566513639981 0.00000000000000 3.29566513639981
 3.29566513639981 3.29566513639981 0.00000000000000
PRIMCOORD
 1 1
 88     0.00000000000000     0.00000000000000     0.00000000000000
