CRYSTAL
PRIMVEC
 0.00000000000000 3.57508370145837 3.57508370145837
 3.57508370145837 0.00000000000000 3.57508370145837
 3.57508370145837 3.57508370145837 0.00000000000000
PRIMCOORD
 1 1
 37     0.00000000000000     0.00000000000000     0.00000000000000
