CRYSTAL
PRIMVEC
 4.62829098711822 0.00000000000000 0.00000000000000
 0.00000000000000 4.62829098711822 0.00000000000000
 0.00000000000000 0.00000000000000 4.62829098711822
PRIMCOORD
 1 1
 37     0.00000000000000     0.00000000000000     0.00000000000000
