CRYSTAL
PRIMVEC
 2.57851807737085 0.00000000000000 0.00000000000000
 0.00000000000000 2.57851807737085 0.00000000000000
 0.00000000000000 0.00000000000000 2.57851807737085
PRIMCOORD
 1 1
 75     0.00000000000000     0.00000000000000     0.00000000000000
