CRYSTAL
PRIMVEC
 -1.53540690315675 1.53540690315675 1.53540690315675
 1.53540690315675 -1.53540690315675 1.53540690315675
 1.53540690315675 1.53540690315675 -1.53540690315675
PRIMCOORD
 1 1
 45     0.00000000000000     0.00000000000000     0.00000000000000
