CRYSTAL
PRIMVEC
 -1.57865897909908 1.57865897909908 1.57865897909908
 1.57865897909908 -1.57865897909908 1.57865897909908
 1.57865897909908 1.57865897909908 -1.57865897909908
PRIMCOORD
 1 1
 16     0.00000000000000     0.00000000000000     0.00000000000000
