CRYSTAL
PRIMVEC
 -1.83916864615002 1.83916864615002 1.83916864615002
 1.83916864615002 -1.83916864615002 1.83916864615002
 1.83916864615002 1.83916864615002 -1.83916864615002
PRIMCOORD
 1 1
 21     0.00000000000000     0.00000000000000     0.00000000000000
