CRYSTAL
PRIMVEC
 0.00000000000000 2.31103091192937 2.31103091192937
 2.31103091192937 0.00000000000000 2.31103091192937
 2.31103091192937 2.31103091192937 0.00000000000000
PRIMCOORD
 1 1
 21     0.00000000000000     0.00000000000000     0.00000000000000
