CRYSTAL
PRIMVEC
 2.96699926063177 0.00000000000000 0.00000000000000
 0.00000000000000 2.96699926063177 0.00000000000000
 0.00000000000000 0.00000000000000 2.96699926063177
PRIMCOORD
 1 1
 21     0.00000000000000     0.00000000000000     0.00000000000000
