CRYSTAL
PRIMVEC
 -1.71955404642828 1.71955404642828 1.71955404642828
 1.71955404642828 -1.71955404642828 1.71955404642828
 1.71955404642828 1.71955404642828 -1.71955404642828
PRIMCOORD
 1 1
 34     0.00000000000000     0.00000000000000     0.00000000000000
