CRYSTAL
PRIMVEC
 -1.54203847803132 1.54203847803132 1.54203847803132
 1.54203847803132 -1.54203847803132 1.54203847803132
 1.54203847803132 1.54203847803132 -1.54203847803132
PRIMCOORD
 1 1
 14     0.00000000000000     0.00000000000000     0.00000000000000
