CRYSTAL
PRIMVEC
 2.53190147977726 0.00000000000000 0.00000000000000
 0.00000000000000 2.53190147977726 0.00000000000000
 0.00000000000000 0.00000000000000 2.53190147977726
PRIMCOORD
 1 1
 14     0.00000000000000     0.00000000000000     0.00000000000000
