CRYSTAL
PRIMVEC
 -1.75512936854257 1.75512936854257 1.75512936854257
 1.75512936854257 -1.75512936854257 1.75512936854257
 1.75512936854257 1.75512936854257 -1.75512936854257
PRIMCOORD
 1 1
 62     0.00000000000000     0.00000000000000     0.00000000000000
