CRYSTAL
PRIMVEC
 2.74598764347989 0.00000000000000 0.00000000000000
 0.00000000000000 2.74598764347989 0.00000000000000
 0.00000000000000 0.00000000000000 2.74598764347989
PRIMCOORD
 1 1
 73     0.00000000000000     0.00000000000000     0.00000000000000
