CRYSTAL
PRIMVEC
 -1.54050828705355 1.54050828705355 1.54050828705355
 1.54050828705355 -1.54050828705355 1.54050828705355
 1.54050828705355 1.54050828705355 -1.54050828705355
PRIMCOORD
 1 1
 43     0.00000000000000     0.00000000000000     0.00000000000000
