CRYSTAL
PRIMVEC
 0.00000000000000 1.93584134097377 1.93584134097377
 1.93584134097377 0.00000000000000 1.93584134097377
 1.93584134097377 1.93584134097377 0.00000000000000
PRIMCOORD
 1 1
 43     0.00000000000000     0.00000000000000     0.00000000000000
