CRYSTAL
PRIMVEC
 2.53267859378676 0.00000000000000 0.00000000000000
 0.00000000000000 2.53267859378676 0.00000000000000
 0.00000000000000 0.00000000000000 2.53267859378676
PRIMCOORD
 1 1
 43     0.00000000000000     0.00000000000000     0.00000000000000
