CRYSTAL
PRIMVEC
 -2.01389663545165 2.01389663545165 2.01389663545165
 2.01389663545165 -2.01389663545165 2.01389663545165
 2.01389663545165 2.01389663545165 -2.01389663545165
PRIMCOORD
 1 1
 90     0.00000000000000     0.00000000000000     0.00000000000000
