CRYSTAL
PRIMVEC
 0.00000000000000 2.60417038806948 2.60417038806948
 2.60417038806948 0.00000000000000 2.60417038806948
 2.60417038806948 2.60417038806948 0.00000000000000
PRIMCOORD
 1 1
 69     0.00000000000000     0.00000000000000     0.00000000000000
