CRYSTAL
PRIMVEC
 4.78987629010921 0.00000000000000 0.00000000000000
 0.00000000000000 4.78987629010921 0.00000000000000
 0.00000000000000 0.00000000000000 4.78987629010921
PRIMCOORD
 1 1
 54     0.00000000000000     0.00000000000000     0.00000000000000
