CRYSTAL
PRIMVEC
 0.00000000000000 2.53232478481542 2.53232478481542
 2.53232478481542 0.00000000000000 2.53232478481542
 2.53232478481542 2.53232478481542 0.00000000000000
PRIMCOORD
 1 1
 39     0.00000000000000     0.00000000000000     0.00000000000000
