CRYSTAL
PRIMVEC
 -2.04991099147914 2.04991099147914 2.04991099147914
 2.04991099147914 -2.04991099147914 2.04991099147914
 2.04991099147914 2.04991099147914 -2.04991099147914
PRIMCOORD
 1 1
 70     0.00000000000000     0.00000000000000     0.00000000000000
