CRYSTAL
PRIMVEC
 2.63122852050125 0.00000000000000 0.00000000000000
 0.00000000000000 2.63122852050125 0.00000000000000
 0.00000000000000 0.00000000000000 2.63122852050125
PRIMCOORD
 1 1
 30     0.00000000000000     0.00000000000000     0.00000000000000
