CRYSTAL
PRIMVEC
 2.72280000000000 0.00000000000000 0.00000000000000
 0.00000000000000 2.72280000000000 0.00000000000000
 0.00000000000000 0.00000000000000 2.72280000000000
PRIMCOORD
 1 1
 13     0.00000000000000     0.00000000000000     0.00000000000000
