CRYSTAL
PRIMVEC
 2.52950000000000 0.00000000000000 0.00000000000000
 0.00000000000000 2.52950000000000 0.00000000000000
 0.00000000000000 0.00000000000000 2.52950000000000
PRIMCOORD
 1 1
 95     0.00000000000000     0.00000000000000     0.00000000000000
