CRYSTAL
PRIMVEC
 -1.68375000000000 1.68375000000000 1.68375000000000
 1.68375000000000 -1.68375000000000 1.68375000000000
 1.68375000000000 1.68375000000000 -1.68375000000000
PRIMCOORD
 1 1
 33     0.00000000000000     0.00000000000000     0.00000000000000
