CRYSTAL
PRIMVEC
 2.17340000000000 0.00000000000000 0.00000000000000
 0.00000000000000 2.17340000000000 0.00000000000000
 0.00000000000000 0.00000000000000 2.17340000000000
PRIMCOORD
 1 1
  4     0.00000000000000     0.00000000000000     0.00000000000000
