CRYSTAL
PRIMVEC
 3.27530000000000 0.00000000000000 0.00000000000000
 0.00000000000000 3.27530000000000 0.00000000000000
 0.00000000000000 0.00000000000000 3.27530000000000
PRIMCOORD
 1 1
 83     0.00000000000000     0.00000000000000     0.00000000000000
