CRYSTAL
PRIMVEC
 -1.89490000000000 1.89490000000000 1.89490000000000
 1.89490000000000 -1.89490000000000 1.89490000000000
 1.89490000000000 1.89490000000000 -1.89490000000000
PRIMCOORD
 1 1
 58     0.00000000000000     0.00000000000000     0.00000000000000
