CRYSTAL
PRIMVEC
 2.91590000000000 0.00000000000000 0.00000000000000
 0.00000000000000 2.91590000000000 0.00000000000000
 0.00000000000000 0.00000000000000 2.91590000000000
PRIMCOORD
 1 1
 58     0.00000000000000     0.00000000000000     0.00000000000000
