CRYSTAL
PRIMVEC
 -1.44250000000000 1.44250000000000 1.44250000000000
 1.44250000000000 -1.44250000000000 1.44250000000000
 1.44250000000000 1.44250000000000 -1.44250000000000
PRIMCOORD
 1 1
 29     0.00000000000000     0.00000000000000     0.00000000000000
