CRYSTAL
PRIMVEC
 -2.03890000000000 2.03890000000000 2.03890000000000
 2.03890000000000 -2.03890000000000 2.03890000000000
 2.03890000000000 2.03890000000000 -2.03890000000000
PRIMCOORD
 1 1
 68     0.00000000000000     0.00000000000000     0.00000000000000
