CRYSTAL
PRIMVEC
 -1.86905000000000 1.86905000000000 1.86905000000000
 1.86905000000000 -1.86905000000000 1.86905000000000
 1.86905000000000 1.86905000000000 -1.86905000000000
PRIMCOORD
 1 1
 63     0.00000000000000     0.00000000000000     0.00000000000000
