CRYSTAL
PRIMVEC
 2.60050000000000 0.00000000000000 0.00000000000000
 0.00000000000000 2.60050000000000 0.00000000000000
 0.00000000000000 0.00000000000000 2.60050000000000
PRIMCOORD
 1 1
 63     0.00000000000000     0.00000000000000     0.00000000000000
