CRYSTAL
PRIMVEC
 -1.36110000000000 1.36110000000000 1.36110000000000
 1.36110000000000 -1.36110000000000 1.36110000000000
 1.36110000000000 1.36110000000000 -1.36110000000000
PRIMCOORD
 1 1
  9     0.00000000000000     0.00000000000000     0.00000000000000
