CRYSTAL
PRIMVEC
 0.00000000000000 1.72550000000000 1.72550000000000
 1.72550000000000 0.00000000000000 1.72550000000000
 1.72550000000000 1.72550000000000 0.00000000000000
PRIMCOORD
 1 1
 26     0.00000000000000     0.00000000000000     0.00000000000000
