CRYSTAL
PRIMVEC
 -3.07735000000000 3.07735000000000 3.07735000000000
 3.07735000000000 -3.07735000000000 3.07735000000000
 3.07735000000000 3.07735000000000 -3.07735000000000
PRIMCOORD
 1 1
 87     0.00000000000000     0.00000000000000     0.00000000000000
