CRYSTAL
PRIMVEC
 -1.68700000000000 1.68700000000000 1.68700000000000
 1.68700000000000 -1.68700000000000 1.68700000000000
 1.68700000000000 1.68700000000000 -1.68700000000000
PRIMCOORD
 1 1
 31     0.00000000000000     0.00000000000000     0.00000000000000
