CRYSTAL
PRIMVEC
 -1.65680000000000 1.65680000000000 1.65680000000000
 1.65680000000000 -1.65680000000000 1.65680000000000
 1.65680000000000 1.65680000000000 -1.65680000000000
PRIMCOORD
 1 1
  2     0.00000000000000     0.00000000000000     0.00000000000000
