CRYSTAL
PRIMVEC
 2.68440000000000 0.00000000000000 0.00000000000000
 0.00000000000000 2.68440000000000 0.00000000000000
 0.00000000000000 0.00000000000000 2.68440000000000
PRIMCOORD
 1 1
  2     0.00000000000000     0.00000000000000     0.00000000000000
