CRYSTAL
PRIMVEC
 2.91120000000000 0.00000000000000 0.00000000000000
 0.00000000000000 2.91120000000000 0.00000000000000
 0.00000000000000 0.00000000000000 2.91120000000000
PRIMCOORD
 1 1
 72     0.00000000000000     0.00000000000000     0.00000000000000
