CRYSTAL
PRIMVEC
 3.11480000000000 0.00000000000000 0.00000000000000
 0.00000000000000 3.11480000000000 0.00000000000000
 0.00000000000000 0.00000000000000 3.11480000000000
PRIMCOORD
 1 1
 80     0.00000000000000     0.00000000000000     0.00000000000000
