CRYSTAL
PRIMVEC
 3.23200000000000 0.00000000000000 0.00000000000000
 0.00000000000000 3.23200000000000 0.00000000000000
 0.00000000000000 0.00000000000000 3.23200000000000
PRIMCOORD
 1 1
 67     0.00000000000000     0.00000000000000     0.00000000000000
