CRYSTAL
PRIMVEC
 -2.07950000000000 2.07950000000000 2.07950000000000
 2.07950000000000 -2.07950000000000 2.07950000000000
 2.07950000000000 2.07950000000000 -2.07950000000000
PRIMCOORD
 1 1
 53     0.00000000000000     0.00000000000000     0.00000000000000
