CRYSTAL
PRIMVEC
 3.46290000000000 0.00000000000000 0.00000000000000
 0.00000000000000 3.46290000000000 0.00000000000000
 0.00000000000000 0.00000000000000 3.46290000000000
PRIMCOORD
 1 1
 53     0.00000000000000     0.00000000000000     0.00000000000000
