CRYSTAL
PRIMVEC
 -1.90735000000000 1.90735000000000 1.90735000000000
 1.90735000000000 -1.90735000000000 1.90735000000000
 1.90735000000000 1.90735000000000 -1.90735000000000
PRIMCOORD
 1 1
 49     0.00000000000000     0.00000000000000     0.00000000000000
