CRYSTAL
PRIMVEC
 2.57160000000000 0.00000000000000 0.00000000000000
 0.00000000000000 2.57160000000000 0.00000000000000
 0.00000000000000 0.00000000000000 2.57160000000000
PRIMCOORD
 1 1
 77     0.00000000000000     0.00000000000000     0.00000000000000
