CRYSTAL
PRIMVEC
 3.34090000000000 0.00000000000000 0.00000000000000
 0.00000000000000 3.34090000000000 0.00000000000000
 0.00000000000000 0.00000000000000 3.34090000000000
PRIMCOORD
 1 1
 57     0.00000000000000     0.00000000000000     0.00000000000000
