CRYSTAL
PRIMVEC
 2.73230000000000 0.00000000000000 0.00000000000000
 0.00000000000000 2.73230000000000 0.00000000000000
 0.00000000000000 0.00000000000000 2.73230000000000
PRIMCOORD
 1 1
  3     0.00000000000000     0.00000000000000     0.00000000000000
