CRYSTAL
PRIMVEC
 -1.94725000000000 1.94725000000000 1.94725000000000
 1.94725000000000 -1.94725000000000 1.94725000000000
 1.94725000000000 1.94725000000000 -1.94725000000000
PRIMCOORD
 1 1
 71     0.00000000000000     0.00000000000000     0.00000000000000
