CRYSTAL
PRIMVEC
 3.02190000000000 0.00000000000000 0.00000000000000
 0.00000000000000 3.02190000000000 0.00000000000000
 0.00000000000000 0.00000000000000 3.02190000000000
PRIMCOORD
 1 1
 12     0.00000000000000     0.00000000000000     0.00000000000000
