CRYSTAL
PRIMVEC
 3.41310000000000 0.00000000000000 0.00000000000000
 0.00000000000000 3.41310000000000 0.00000000000000
 0.00000000000000 0.00000000000000 3.41310000000000
PRIMCOORD
 1 1
 11     0.00000000000000     0.00000000000000     0.00000000000000
