CRYSTAL
PRIMVEC
 0.00000000000000 2.24935000000000 2.24935000000000
 2.24935000000000 0.00000000000000 2.24935000000000
 2.24935000000000 2.24935000000000 0.00000000000000
PRIMCOORD
 1 1
 60     0.00000000000000     0.00000000000000     0.00000000000000
