CRYSTAL
PRIMVEC
 -1.83445000000000 1.83445000000000 1.83445000000000
 1.83445000000000 -1.83445000000000 1.83445000000000
 1.83445000000000 1.83445000000000 -1.83445000000000
PRIMCOORD
 1 1
 10     0.00000000000000     0.00000000000000     0.00000000000000
