CRYSTAL
PRIMVEC
 3.09470000000000 0.00000000000000 0.00000000000000
 0.00000000000000 3.09470000000000 0.00000000000000
 0.00000000000000 0.00000000000000 3.09470000000000
PRIMCOORD
 1 1
 10     0.00000000000000     0.00000000000000     0.00000000000000
