CRYSTAL
PRIMVEC
 2.58320000000000 0.00000000000000 0.00000000000000
 0.00000000000000 2.58320000000000 0.00000000000000
 0.00000000000000 0.00000000000000 2.58320000000000
PRIMCOORD
 1 1
 93     0.00000000000000     0.00000000000000     0.00000000000000
