CRYSTAL
PRIMVEC
 -1.24975000000000 1.24975000000000 1.24975000000000
 1.24975000000000 -1.24975000000000 1.24975000000000
 1.24975000000000 1.24975000000000 -1.24975000000000
PRIMCOORD
 1 1
  8     0.00000000000000     0.00000000000000     0.00000000000000
