CRYSTAL
PRIMVEC
 -1.54615000000000 1.54615000000000 1.54615000000000
 1.54615000000000 -1.54615000000000 1.54615000000000
 1.54615000000000 1.54615000000000 -1.54615000000000
PRIMCOORD
 1 1
 76     0.00000000000000     0.00000000000000     0.00000000000000
