CRYSTAL
PRIMVEC
 2.55800000000000 0.00000000000000 0.00000000000000
 0.00000000000000 2.55800000000000 0.00000000000000
 0.00000000000000 0.00000000000000 2.55800000000000
PRIMCOORD
 1 1
 76     0.00000000000000     0.00000000000000     0.00000000000000
