CRYSTAL
PRIMVEC
 2.88640000000000 0.00000000000000 0.00000000000000
 0.00000000000000 2.88640000000000 0.00000000000000
 0.00000000000000 0.00000000000000 2.88640000000000
PRIMCOORD
 1 1
 91     0.00000000000000     0.00000000000000     0.00000000000000
