CRYSTAL
PRIMVEC
 -1.71350000000000 1.71350000000000 1.71350000000000
 1.71350000000000 -1.71350000000000 1.71350000000000
 1.71350000000000 1.71350000000000 -1.71350000000000
PRIMCOORD
 1 1
 61     0.00000000000000     0.00000000000000     0.00000000000000
