CRYSTAL
PRIMVEC
 2.59400000000000 0.00000000000000 0.00000000000000
 0.00000000000000 2.59400000000000 0.00000000000000
 0.00000000000000 0.00000000000000 2.59400000000000
PRIMCOORD
 1 1
 61     0.00000000000000     0.00000000000000     0.00000000000000
