CRYSTAL
PRIMVEC
 -2.01920000000000 2.01920000000000 2.01920000000000
 2.01920000000000 -2.01920000000000 2.01920000000000
 2.01920000000000 2.01920000000000 -2.01920000000000
PRIMCOORD
 1 1
 84     0.00000000000000     0.00000000000000     0.00000000000000
