CRYSTAL
PRIMVEC
 2.73070000000000 0.00000000000000 0.00000000000000
 0.00000000000000 2.73070000000000 0.00000000000000
 0.00000000000000 0.00000000000000 2.73070000000000
PRIMCOORD
 1 1
 59     0.00000000000000     0.00000000000000     0.00000000000000
