CRYSTAL
PRIMVEC
 0.00000000000000 2.89010000000000 2.89010000000000
 2.89010000000000 0.00000000000000 2.89010000000000
 2.89010000000000 2.89010000000000 0.00000000000000
PRIMCOORD
 2 1
 78     0.00000000000000     0.00000000000000     0.00000000000000
 78     1.44505000000000     1.44505000000000     1.44505000000000
