CRYSTAL
PRIMVEC
 4.22400000000000 0.00000000000000 0.00000000000000
 0.00000000000000 4.22400000000000 0.00000000000000
 0.00000000000000 0.00000000000000 4.22400000000000
PRIMCOORD
 1 1
 88     0.00000000000000     0.00000000000000     0.00000000000000
