CRYSTAL
PRIMVEC
 4.63140000000000 0.00000000000000 0.00000000000000
 0.00000000000000 4.63140000000000 0.00000000000000
 0.00000000000000 0.00000000000000 4.63140000000000
PRIMCOORD
 1 1
 37     0.00000000000000     0.00000000000000     0.00000000000000
