CRYSTAL
PRIMVEC
 -1.55720000000000 1.55720000000000 1.55720000000000
 1.55720000000000 -1.55720000000000 1.55720000000000
 1.55720000000000 1.55720000000000 -1.55720000000000
PRIMCOORD
 1 1
 75     0.00000000000000     0.00000000000000     0.00000000000000
