CRYSTAL
PRIMVEC
 2.53760000000000 0.00000000000000 0.00000000000000
 0.00000000000000 2.53760000000000 0.00000000000000
 0.00000000000000 0.00000000000000 2.53760000000000
PRIMCOORD
 1 1
 45     0.00000000000000     0.00000000000000     0.00000000000000
