CRYSTAL
PRIMVEC
 0.00000000000000 3.59800000000000 3.59800000000000
 3.59800000000000 0.00000000000000 3.59800000000000
 3.59800000000000 3.59800000000000 0.00000000000000
PRIMCOORD
 1 1
 86     0.00000000000000     0.00000000000000     0.00000000000000
