CRYSTAL
PRIMVEC
 2.58050000000000 0.00000000000000 0.00000000000000
 0.00000000000000 2.58050000000000 0.00000000000000
 0.00000000000000 0.00000000000000 2.58050000000000
PRIMCOORD
 1 1
 16     0.00000000000000     0.00000000000000     0.00000000000000
