CRYSTAL
PRIMVEC
 -1.83910000000000 1.83910000000000 1.83910000000000
 1.83910000000000 -1.83910000000000 1.83910000000000
 1.83910000000000 1.83910000000000 -1.83910000000000
PRIMCOORD
 1 1
 21     0.00000000000000     0.00000000000000     0.00000000000000
