CRYSTAL
PRIMVEC
 -1.71900000000000 1.71900000000000 1.71900000000000
 1.71900000000000 -1.71900000000000 1.71900000000000
 1.71900000000000 1.71900000000000 -1.71900000000000
PRIMCOORD
 1 1
 34     0.00000000000000     0.00000000000000     0.00000000000000
