CRYSTAL
PRIMVEC
 0.00000000000000 2.25130000000000 2.25130000000000
 2.25130000000000 0.00000000000000 2.25130000000000
 2.25130000000000 2.25130000000000 0.00000000000000
PRIMCOORD
 1 1
 62     0.00000000000000     0.00000000000000     0.00000000000000
