CRYSTAL
PRIMVEC
 3.86190000000000 0.00000000000000 0.00000000000000
 0.00000000000000 3.86190000000000 0.00000000000000
 0.00000000000000 0.00000000000000 3.86190000000000
PRIMCOORD
 1 1
 38     0.00000000000000     0.00000000000000     0.00000000000000
