CRYSTAL
PRIMVEC
 -1.65980000000000 1.65980000000000 1.65980000000000
 1.65980000000000 -1.65980000000000 1.65980000000000
 1.65980000000000 1.65980000000000 -1.65980000000000
PRIMCOORD
 1 1
 73     0.00000000000000     0.00000000000000     0.00000000000000
