CRYSTAL
PRIMVEC
 3.19980000000000 0.00000000000000 0.00000000000000
 0.00000000000000 3.19980000000000 0.00000000000000
 0.00000000000000 0.00000000000000 3.19980000000000
PRIMCOORD
 1 1
 52     0.00000000000000     0.00000000000000     0.00000000000000
