CRYSTAL
PRIMVEC
 3.27640000000000 0.00000000000000 0.00000000000000
 0.00000000000000 3.27640000000000 0.00000000000000
 0.00000000000000 0.00000000000000 3.27640000000000
PRIMCOORD
 1 1
 90     0.00000000000000     0.00000000000000     0.00000000000000
