CRYSTAL
PRIMVEC
 -1.62830000000000 1.62830000000000 1.62830000000000
 1.62830000000000 -1.62830000000000 1.62830000000000
 1.62830000000000 1.62830000000000 -1.62830000000000
PRIMCOORD
 1 1
 22     0.00000000000000     0.00000000000000     0.00000000000000
