CRYSTAL
PRIMVEC
 2.63960000000000 0.00000000000000 0.00000000000000
 0.00000000000000 2.63960000000000 0.00000000000000
 0.00000000000000 0.00000000000000 2.63960000000000
PRIMCOORD
 1 1
 22     0.00000000000000     0.00000000000000     0.00000000000000
