CRYSTAL
PRIMVEC
 3.25040000000000 0.00000000000000 0.00000000000000
 0.00000000000000 3.25040000000000 0.00000000000000
 0.00000000000000 0.00000000000000 3.25040000000000
PRIMCOORD
 1 1
 81     0.00000000000000     0.00000000000000     0.00000000000000
