CRYSTAL
PRIMVEC
 -1.71435000000000 1.71435000000000 1.71435000000000
 1.71435000000000 -1.71435000000000 1.71435000000000
 1.71435000000000 1.71435000000000 -1.71435000000000
PRIMCOORD
 1 1
 92     0.00000000000000     0.00000000000000     0.00000000000000
