CRYSTAL
PRIMVEC
 2.45000000000000 0.00000000000000 0.00000000000000
 0.00000000000000 2.45000000000000 0.00000000000000
 0.00000000000000 0.00000000000000 2.45000000000000
PRIMCOORD
 1 1
 23     0.00000000000000     0.00000000000000     0.00000000000000
