CRYSTAL
PRIMVEC
 4.79100000000000 0.00000000000000 0.00000000000000
 0.00000000000000 4.79100000000000 0.00000000000000
 0.00000000000000 0.00000000000000 4.79100000000000
PRIMCOORD
 1 1
 54     0.00000000000000     0.00000000000000     0.00000000000000
