CRYSTAL
PRIMVEC
 3.26540000000000 0.00000000000000 0.00000000000000
 0.00000000000000 3.26540000000000 0.00000000000000
 0.00000000000000 0.00000000000000 3.26540000000000
PRIMCOORD
 1 1
 39     0.00000000000000     0.00000000000000     0.00000000000000
