CRYSTAL
PRIMVEC
 -2.04630000000000 2.04630000000000 2.04630000000000
 2.04630000000000 -2.04630000000000 2.04630000000000
 2.04630000000000 2.04630000000000 -2.04630000000000
PRIMCOORD
 1 1
 70     0.00000000000000     0.00000000000000     0.00000000000000
