CRYSTAL
PRIMVEC
 -1.56495000000000 1.56495000000000 1.56495000000000
 1.56495000000000 -1.56495000000000 1.56495000000000
 1.56495000000000 1.56495000000000 -1.56495000000000
PRIMCOORD
 1 1
 30     0.00000000000000     0.00000000000000     0.00000000000000
