CRYSTAL
PRIMVEC
 2.63260000000000 0.00000000000000 0.00000000000000
 0.00000000000000 2.63260000000000 0.00000000000000
 0.00000000000000 0.00000000000000 2.63260000000000
PRIMCOORD
 1 1
 30     0.00000000000000     0.00000000000000     0.00000000000000
