CRYSTAL
PRIMVEC
 -1.78785000000000 1.78785000000000 1.78785000000000
 1.78785000000000 -1.78785000000000 1.78785000000000
 1.78785000000000 1.78785000000000 -1.78785000000000
PRIMCOORD
 1 1
 40     0.00000000000000     0.00000000000000     0.00000000000000
