CRYSTAL
PRIMVEC
 2.90920000000000 0.00000000000000 0.00000000000000
 0.00000000000000 2.90920000000000 0.00000000000000
 0.00000000000000 0.00000000000000 2.90920000000000
PRIMCOORD
 1 1
 40     0.00000000000000     0.00000000000000     0.00000000000000
